ITEM: TIMESTEP
0
ITEM: NUMBER OF ATOMS
3000
ITEM: BOX BOUNDS pp pp pp
0.0000000000000000e+00 3.4500000000000000e+01
0.0000000000000000e+00 3.4500000000000000e+01
0.0000000000000000e+00 3.4500000000000000e+01
ITEM: ATOMS id mol type x y z ix iy iz 
2 1 2 0.81407 0.577694 7.56221e-18 0 0 0 
5 2 2 4.26407 0.57769 4.55645e-18 0 0 0 
6 2 2 2.63593 0.577697 5.0422e-18 0 0 0 
9 3 2 6.08593 0.577696 4.68203e-18 0 0 0 
31 11 1 1.27889e-15 3.44933 0 0 0 0 
32 11 2 0.81407 4.0277 7.48437e-18 0 0 0 
34 12 1 3.44999 3.44933 0 0 0 0 
35 12 2 4.26407 4.02769 1.24323e-17 0 0 0 
36 12 2 2.63593 4.0277 1.04274e-17 0 0 0 
39 13 2 6.08593 4.0277 1.2611e-17 0 0 0 
302 101 2 0.81407 0.577694 3.45 0 0 0 
305 102 2 4.26407 0.57769 3.45 0 0 0 
306 102 2 2.63593 0.577697 3.45 0 0 0 
309 103 2 6.08593 0.577696 3.45 0 0 0 
331 111 1 6.89481e-17 3.44933 3.45 0 0 0 
332 111 2 0.81407 4.0277 3.45 0 0 0 
334 112 1 3.44999 3.44933 3.45 0 0 0 
335 112 2 4.26407 4.02769 3.45 0 0 0 
336 112 2 2.63593 4.0277 3.45 0 0 0 
339 113 2 6.08593 4.0277 3.45 0 0 0 
37 13 1 6.9 3.44933 0 0 0 0 
337 113 1 6.9 3.44933 3.45 0 0 0 
61 21 1 0 6.89933 2.11183e-18 0 0 0 
64 22 1 3.44999 6.89933 0 0 0 0 
361 121 1 0 6.89933 3.45 0 0 0 
364 122 1 3.44999 6.89933 3.45 0 0 0 
67 23 1 6.9 6.89933 0 0 0 0 
367 123 1 6.9 6.89933 3.45 0 0 0 
606 202 2 2.63593 0.577697 6.9 0 0 0 
609 203 2 6.08593 0.577696 6.9 0 0 0 
631 211 1 2.8711e-16 3.44933 6.9 0 0 0 
634 212 1 3.44999 3.44933 6.9 0 0 0 
636 212 2 2.63593 4.0277 6.9 0 0 0 
639 213 2 6.08593 4.0277 6.9 0 0 0 
661 221 1 0 6.89933 6.9 0 0 0 
8 3 2 7.71407 0.577691 3.90867e-18 0 0 0 
11 4 2 11.1641 0.577696 4.2197e-18 0 0 0 
12 4 2 9.53593 0.577691 4.23532e-18 0 0 0 
15 5 2 12.9859 0.57769 4.28569e-18 0 0 0 
38 13 2 7.71407 4.0277 1.2003e-17 0 0 0 
40 14 1 10.35 3.44933 0 0 0 0 
41 14 2 11.1641 4.0277 1.20841e-17 0 0 0 
42 14 2 9.53593 4.0277 1.1339e-17 0 0 0 
45 15 2 12.9859 4.02769 1.27892e-17 0 0 0 
308 103 2 7.71407 0.577691 3.45 0 0 0 
311 104 2 11.1641 0.577696 3.45 0 0 0 
312 104 2 9.53593 0.577691 3.45 0 0 0 
315 105 2 12.9859 0.57769 3.45 0 0 0 
338 113 2 7.71407 4.0277 3.45 0 0 0 
340 114 1 10.35 3.44933 3.45 0 0 0 
341 114 2 11.1641 4.0277 3.45 0 0 0 
342 114 2 9.53593 4.0277 3.45 0 0 0 
345 115 2 12.9859 4.02769 3.45 0 0 0 
70 24 1 10.35 6.89933 0 0 0 0 
370 124 1 10.35 6.89933 3.45 0 0 0 
611 204 2 11.1641 0.577696 6.9 0 0 0 
641 214 2 11.1641 4.0277 6.9 0 0 0 
14 5 2 14.6141 0.577697 3.69555e-18 0 0 0 
17 6 2 18.0641 0.577694 7.83236e-18 0 0 0 
18 6 2 16.4359 0.577694 8.31671e-18 0 0 0 
21 7 2 19.8859 0.577697 3.97026e-18 0 0 0 
43 15 1 13.8 3.44933 0 0 0 0 
44 15 2 14.6141 4.0277 1.03547e-17 0 0 0 
46 16 1 17.25 3.44933 0 0 0 0 
47 16 2 18.0641 4.0277 6.4225e-18 0 0 0 
48 16 2 16.4359 4.0277 6.67531e-18 0 0 0 
51 17 2 19.8859 4.0277 1.11881e-17 0 0 0 
314 105 2 14.6141 0.577697 3.45 0 0 0 
317 106 2 18.0641 0.577694 3.45 0 0 0 
318 106 2 16.4359 0.577694 3.45 0 0 0 
321 107 2 19.8859 0.577697 3.45 0 0 0 
343 115 1 13.8 3.44933 3.45 0 0 0 
344 115 2 14.6141 4.0277 3.45 0 0 0 
346 116 1 17.25 3.44933 3.45 0 0 0 
347 116 2 18.0641 4.0277 3.45 0 0 0 
348 116 2 16.4359 4.0277 3.45 0 0 0 
351 117 2 19.8859 4.0277 3.45 0 0 0 
49 17 1 20.7 3.44933 0 0 0 0 
349 117 1 20.7 3.44933 3.45 0 0 0 
73 25 1 13.8 6.89933 0 0 0 0 
76 26 1 17.25 6.89933 0 0 0 0 
373 125 1 13.8 6.89933 3.45 0 0 0 
376 126 1 17.25 6.89933 3.45 0 0 0 
79 27 1 20.7 6.89933 0 0 0 0 
379 127 1 20.7 6.89933 3.45 0 0 0 
614 205 2 14.6141 0.577697 6.9 0 0 0 
621 207 2 19.8859 0.577697 6.9 0 0 0 
643 215 1 13.8 3.44933 6.9 0 0 0 
644 215 2 14.6141 4.0277 6.9 0 0 0 
646 216 1 17.25 3.44933 6.9 0 0 0 
651 217 2 19.8859 4.0277 6.9 0 0 0 
649 217 1 20.7 3.44933 6.9 0 0 0 
676 226 1 17.25 6.89933 6.9 0 0 0 
20 7 2 21.5141 0.57769 4.53443e-18 0 0 0 
23 8 2 24.9641 0.577691 4.46776e-18 0 0 0 
24 8 2 23.3359 0.577696 4.55314e-18 0 0 0 
27 9 2 26.7859 0.577691 5.16582e-18 0 0 0 
50 17 2 21.5141 4.02769 1.28017e-17 0 0 0 
52 18 1 24.15 3.44933 0 0 0 0 
53 18 2 24.9641 4.0277 1.22956e-17 0 0 0 
54 18 2 23.3359 4.0277 1.25863e-17 0 0 0 
57 19 2 26.7859 4.0277 1.21452e-17 0 0 0 
320 107 2 21.5141 0.57769 3.45 0 0 0 
323 108 2 24.9641 0.577691 3.45 0 0 0 
324 108 2 23.3359 0.577696 3.45 0 0 0 
327 109 2 26.7859 0.577691 3.45 0 0 0 
350 117 2 21.5141 4.02769 3.45 0 0 0 
352 118 1 24.15 3.44933 3.45 0 0 0 
353 118 2 24.9641 4.0277 3.45 0 0 0 
354 118 2 23.3359 4.0277 3.45 0 0 0 
357 119 2 26.7859 4.0277 3.45 0 0 0 
82 28 1 24.15 6.89933 0 0 0 0 
382 128 1 24.15 6.89933 3.45 0 0 0 
624 208 2 23.3359 0.577696 6.9 0 0 0 
654 218 2 23.3359 4.0277 6.9 0 0 0 
3 1 2 33.6859 0.577694 7.26078e-18 -1 0 0 
26 9 2 28.4141 0.577696 4.14481e-18 0 0 0 
29 10 2 31.8641 0.577697 4.79795e-18 0 0 0 
30 10 2 30.2359 0.57769 4.78143e-18 0 0 0 
33 11 2 33.6859 4.0277 9.15865e-18 -1 0 0 
55 19 1 27.6 3.44933 0 0 0 0 
56 19 2 28.4141 4.0277 1.29183e-17 0 0 0 
58 20 1 31.05 3.44933 0 0 0 0 
59 20 2 31.8641 4.0277 1.14541e-17 0 0 0 
60 20 2 30.2359 4.02769 1.31217e-17 0 0 0 
303 101 2 33.6859 0.577694 3.45 -1 0 0 
326 109 2 28.4141 0.577696 3.45 0 0 0 
329 110 2 31.8641 0.577697 3.45 0 0 0 
330 110 2 30.2359 0.57769 3.45 0 0 0 
333 111 2 33.6859 4.0277 3.45 -1 0 0 
355 119 1 27.6 3.44933 3.45 0 0 0 
356 119 2 28.4141 4.0277 3.45 0 0 0 
358 120 1 31.05 3.44933 3.45 0 0 0 
359 120 2 31.8641 4.0277 3.45 0 0 0 
360 120 2 30.2359 4.02769 3.45 0 0 0 
85 29 1 27.6 6.89933 0 0 0 0 
88 30 1 31.05 6.89933 0 0 0 0 
385 129 1 27.6 6.89933 3.45 0 0 0 
388 130 1 31.05 6.89933 3.45 0 0 0 
626 209 2 28.4141 0.577696 6.9 0 0 0 
629 210 2 31.8641 0.577697 6.9 0 0 0 
656 219 2 28.4141 4.0277 6.9 0 0 0 
658 220 1 31.05 3.44933 6.9 0 0 0 
659 220 2 31.8641 4.0277 6.9 0 0 0 
62 21 2 0.814069 7.4777 3.59591e-18 0 0 0 
65 22 2 4.26407 7.4777 7.91406e-18 0 0 0 
66 22 2 2.63593 7.4777 1.09008e-17 0 0 0 
69 23 2 6.08593 7.4777 7.49468e-18 0 0 0 
91 31 1 4.70292e-16 10.3493 0 0 0 0 
92 31 2 0.814068 10.9277 8.01275e-18 0 0 0 
94 32 1 3.44999 10.3493 0 0 0 0 
95 32 2 4.26407 10.9277 9.67101e-18 0 0 0 
96 32 2 2.63593 10.9277 8.91941e-18 0 0 0 
99 33 2 6.08593 10.9277 1.40151e-17 0 0 0 
362 121 2 0.814069 7.4777 3.45 0 0 0 
365 122 2 4.26407 7.4777 3.45 0 0 0 
366 122 2 2.63593 7.4777 3.45 0 0 0 
369 123 2 6.08593 7.4777 3.45 0 0 0 
391 131 1 0 10.3493 3.45 0 0 0 
392 131 2 0.814068 10.9277 3.45 0 0 0 
394 132 1 3.44999 10.3493 3.45 0 0 0 
395 132 2 4.26407 10.9277 3.45 0 0 0 
396 132 2 2.63593 10.9277 3.45 0 0 0 
399 133 2 6.08593 10.9277 3.45 0 0 0 
97 33 1 6.9 10.3493 0 0 0 0 
397 133 1 6.9 10.3493 3.45 0 0 0 
121 41 1 7.19838e-16 13.7993 0 0 0 0 
124 42 1 3.44999 13.7993 0 0 0 0 
421 141 1 0 13.7993 3.45 0 0 0 
424 142 1 3.44999 13.7993 3.45 0 0 0 
127 43 1 6.9 13.7993 0 0 0 0 
427 143 1 6.9 13.7993 3.45 0 0 0 
662 221 2 0.814069 7.4777 6.9 0 0 0 
666 222 2 2.63593 7.4777 6.9 0 0 0 
669 223 2 6.08593 7.4777 6.9 0 0 0 
691 231 1 0 10.3493 6.9 0 0 0 
692 231 2 0.814068 10.9277 6.9 0 0 0 
694 232 1 3.44999 10.3493 6.9 0 0 0 
696 232 2 2.63593 10.9277 6.9 0 0 0 
699 233 2 6.08593 10.9277 6.9 0 0 0 
697 233 1 6.9 10.3493 6.9 0 0 0 
721 241 1 9.70225e-16 13.7993 6.9 0 0 0 
724 242 1 3.44999 13.7993 6.9 0 0 0 
727 243 1 6.9 13.7993 6.9 0 0 0 
68 23 2 7.71407 7.4777 5.00969e-18 0 0 0 
71 24 2 11.1641 7.4777 6.42518e-18 0 0 0 
72 24 2 9.53593 7.4777 5.10966e-18 0 0 0 
75 25 2 12.9859 7.4777 7.75768e-18 0 0 0 
98 33 2 7.71407 10.9277 1.23815e-17 0 0 0 
100 34 1 10.35 10.3493 0 0 0 0 
101 34 2 11.1641 10.9277 1.4696e-17 0 0 0 
102 34 2 9.53593 10.9277 1.21338e-17 0 0 0 
105 35 2 12.9859 10.9277 9.74538e-18 0 0 0 
368 123 2 7.71407 7.4777 3.45 0 0 0 
371 124 2 11.1641 7.4777 3.45 0 0 0 
372 124 2 9.53593 7.4777 3.45 0 0 0 
375 125 2 12.9859 7.4777 3.45 0 0 0 
398 133 2 7.71407 10.9277 3.45 0 0 0 
400 134 1 10.35 10.3493 3.45 0 0 0 
401 134 2 11.1641 10.9277 3.45 0 0 0 
402 134 2 9.53593 10.9277 3.45 0 0 0 
405 135 2 12.9859 10.9277 3.45 0 0 0 
130 44 1 10.35 13.7993 0 0 0 0 
430 144 1 10.35 13.7993 3.45 0 0 0 
668 223 2 7.71407 7.4777 6.9 0 0 0 
671 224 2 11.1641 7.4777 6.9 0 0 0 
672 224 2 9.53593 7.4777 6.9 0 0 0 
698 233 2 7.71407 10.9277 6.9 0 0 0 
700 234 1 10.35 10.3493 6.9 0 0 0 
701 234 2 11.1641 10.9277 6.9 0 0 0 
702 234 2 9.53593 10.9277 6.9 0 0 0 
730 244 1 10.35 13.7993 6.9 0 0 0 
74 25 2 14.6141 7.4777 1.09474e-17 0 0 0 
77 26 2 18.0641 7.4777 4.88755e-18 0 0 0 
78 26 2 16.4359 7.4777 4.92426e-18 0 0 0 
81 27 2 19.8859 7.4777 1.03624e-17 0 0 0 
103 35 1 13.8 10.3493 0 0 0 0 
104 35 2 14.6141 10.9277 8.40387e-18 0 0 0 
106 36 1 17.25 10.3493 0 0 0 0 
107 36 2 18.0641 10.9277 8.57969e-18 0 0 0 
108 36 2 16.4359 10.9277 8.33011e-18 0 0 0 
111 37 2 19.8859 10.9277 8.24619e-18 0 0 0 
374 125 2 14.6141 7.4777 3.45 0 0 0 
377 126 2 18.0641 7.4777 3.45 0 0 0 
378 126 2 16.4359 7.4777 3.45 0 0 0 
381 127 2 19.8859 7.4777 3.45 0 0 0 
403 135 1 13.8 10.3493 3.45 0 0 0 
404 135 2 14.6141 10.9277 3.45 0 0 0 
406 136 1 17.25 10.3493 3.45 0 0 0 
407 136 2 18.0641 10.9277 3.45 0 0 0 
408 136 2 16.4359 10.9277 3.45 0 0 0 
411 137 2 19.8859 10.9277 3.45 0 0 0 
109 37 1 20.7 10.3493 0 0 0 0 
409 137 1 20.7 10.3493 3.45 0 0 0 
133 45 1 13.8 13.7993 0 0 0 0 
136 46 1 17.25 13.7993 0 0 0 0 
433 145 1 13.8 13.7993 3.45 0 0 0 
436 146 1 17.25 13.7993 3.45 0 0 0 
139 47 1 20.7 13.7993 0 0 0 0 
439 147 1 20.7 13.7993 3.45 0 0 0 
674 225 2 14.6141 7.4777 6.9 0 0 0 
677 226 2 18.0641 7.4777 6.9 0 0 0 
678 226 2 16.4359 7.4777 6.9 0 0 0 
681 227 2 19.8859 7.4777 6.9 0 0 0 
703 235 1 13.8 10.3493 6.9 0 0 0 
704 235 2 14.6141 10.9277 6.9 0 0 0 
706 236 1 17.25 10.3493 6.9 0 0 0 
707 236 2 18.0641 10.9277 6.9 0 0 0 
708 236 2 16.4359 10.9277 6.9 0 0 0 
711 237 2 19.8859 10.9277 6.9 0 0 0 
709 237 1 20.7 10.3493 6.9 0 0 0 
733 245 1 13.8 13.7993 6.9 0 0 0 
736 246 1 17.25 13.7993 6.9 0 0 0 
739 247 1 20.7 13.7993 6.9 0 0 0 
80 27 2 21.5141 7.4777 7.44654e-18 0 0 0 
83 28 2 24.9641 7.4777 3.87099e-18 0 0 0 
84 28 2 23.3359 7.4777 5.62517e-18 0 0 0 
87 29 2 26.7859 7.4777 4.47951e-18 0 0 0 
110 37 2 21.5141 10.9277 9.90673e-18 0 0 0 
112 38 1 24.15 10.3493 0 0 0 0 
113 38 2 24.9641 10.9277 1.26719e-17 0 0 0 
114 38 2 23.3359 10.9277 1.58768e-17 0 0 0 
117 39 2 26.7859 10.9277 1.34693e-17 0 0 0 
380 127 2 21.5141 7.4777 3.45 0 0 0 
383 128 2 24.9641 7.4777 3.45 0 0 0 
384 128 2 23.3359 7.4777 3.45 0 0 0 
387 129 2 26.7859 7.4777 3.45 0 0 0 
410 137 2 21.5141 10.9277 3.45 0 0 0 
412 138 1 24.15 10.3493 3.45 0 0 0 
413 138 2 24.9641 10.9277 3.45 0 0 0 
414 138 2 23.3359 10.9277 3.45 0 0 0 
417 139 2 26.7859 10.9277 3.45 0 0 0 
142 48 1 24.15 13.7993 0 0 0 0 
442 148 1 24.15 13.7993 3.45 0 0 0 
683 228 2 24.9641 7.4777 6.9 0 0 0 
684 228 2 23.3359 7.4777 6.9 0 0 0 
687 229 2 26.7859 7.4777 6.9 0 0 0 
712 238 1 24.15 10.3493 6.9 0 0 0 
713 238 2 24.9641 10.9277 6.9 0 0 0 
714 238 2 23.3359 10.9277 6.9 0 0 0 
717 239 2 26.7859 10.9277 6.9 0 0 0 
742 248 1 24.15 13.7993 6.9 0 0 0 
63 21 2 33.6859 7.4777 5.40209e-18 -1 0 0 
86 29 2 28.4141 7.4777 5.07419e-18 0 0 0 
89 30 2 31.8641 7.4777 1.03089e-17 0 0 0 
90 30 2 30.2359 7.4777 7.39145e-18 0 0 0 
93 31 2 33.6859 10.9277 9.2294e-18 -1 0 0 
115 39 1 27.6 10.3493 0 0 0 0 
116 39 2 28.4141 10.9277 1.61367e-17 0 0 0 
118 40 1 31.05 10.3493 0 0 0 0 
119 40 2 31.8641 10.9277 8.90477e-18 0 0 0 
120 40 2 30.2359 10.9277 1.09241e-17 0 0 0 
363 121 2 33.6859 7.4777 3.45 -1 0 0 
386 129 2 28.4141 7.4777 3.45 0 0 0 
389 130 2 31.8641 7.4777 3.45 0 0 0 
390 130 2 30.2359 7.4777 3.45 0 0 0 
393 131 2 33.6859 10.9277 3.45 -1 0 0 
415 139 1 27.6 10.3493 3.45 0 0 0 
416 139 2 28.4141 10.9277 3.45 0 0 0 
418 140 1 31.05 10.3493 3.45 0 0 0 
419 140 2 31.8641 10.9277 3.45 0 0 0 
420 140 2 30.2359 10.9277 3.45 0 0 0 
145 49 1 27.6 13.7993 0 0 0 0 
148 50 1 31.05 13.7993 0 0 0 0 
445 149 1 27.6 13.7993 3.45 0 0 0 
448 150 1 31.05 13.7993 3.45 0 0 0 
663 221 2 33.6859 7.4777 6.9 -1 0 0 
686 229 2 28.4141 7.4777 6.9 0 0 0 
689 230 2 31.8641 7.4777 6.9 0 0 0 
693 231 2 33.6859 10.9277 6.9 -1 0 0 
715 239 1 27.6 10.3493 6.9 0 0 0 
716 239 2 28.4141 10.9277 6.9 0 0 0 
718 240 1 31.05 10.3493 6.9 0 0 0 
719 240 2 31.8641 10.9277 6.9 0 0 0 
745 249 1 27.6 13.7993 6.9 0 0 0 
748 250 1 31.05 13.7993 6.9 0 0 0 
122 41 2 0.814069 14.3777 1.0441e-17 0 0 0 
125 42 2 4.26407 14.3777 5.8011e-18 0 0 0 
126 42 2 2.63593 14.3777 5.16141e-18 0 0 0 
129 43 2 6.08593 14.3777 1.30369e-17 0 0 0 
151 51 1 5.41643e-16 17.2493 0 0 0 0 
152 51 2 0.81407 17.8277 9.34875e-18 0 0 0 
154 52 1 3.44999 17.2493 1.09409e-18 0 0 0 
155 52 2 4.26407 17.8277 5.72223e-18 0 0 0 
156 52 2 2.63593 17.8277 4.54388e-18 0 0 0 
159 53 2 6.08593 17.8277 5.37591e-18 0 0 0 
422 141 2 0.814069 14.3777 3.45 0 0 0 
425 142 2 4.26407 14.3777 3.45 0 0 0 
426 142 2 2.63593 14.3777 3.45 0 0 0 
429 143 2 6.08593 14.3777 3.45 0 0 0 
451 151 1 0 17.2493 3.45 0 0 0 
452 151 2 0.81407 17.8277 3.45 0 0 0 
454 152 1 3.44999 17.2493 3.45 0 0 0 
455 152 2 4.26407 17.8277 3.45 0 0 0 
456 152 2 2.63593 17.8277 3.45 0 0 0 
459 153 2 6.08593 17.8277 3.45 0 0 0 
157 53 1 6.9 17.2493 2.40548e-19 0 0 0 
457 153 1 6.9 17.2493 3.45 0 0 0 
181 61 1 1.80388e-15 20.6993 0 0 0 0 
184 62 1 3.44999 20.6993 0 0 0 0 
481 161 1 5.62757e-16 20.6993 3.45 0 0 0 
484 162 1 3.44999 20.6993 3.45 0 0 0 
187 63 1 6.9 20.6993 0 0 0 0 
487 163 1 6.9 20.6993 3.45 0 0 0 
726 242 2 2.63593 14.3777 6.9 0 0 0 
729 243 2 6.08593 14.3777 6.9 0 0 0 
751 251 1 1.34382e-15 17.2493 6.9 0 0 0 
754 252 1 3.44999 17.2493 6.9 0 0 0 
756 252 2 2.63593 17.8277 6.9 0 0 0 
759 253 2 6.08593 17.8277 6.9 0 0 0 
757 253 1 6.9 17.2493 6.9 0 0 0 
781 261 1 0 20.6993 6.9 0 0 0 
784 262 1 3.44999 20.6993 6.9 0 0 0 
128 43 2 7.71407 14.3777 1.44079e-17 0 0 0 
131 44 2 11.1641 14.3777 1.27659e-17 0 0 0 
132 44 2 9.53593 14.3777 1.42944e-17 0 0 0 
135 45 2 12.9859 14.3777 6.60721e-18 0 0 0 
158 53 2 7.71407 17.8277 3.9517e-18 0 0 0 
160 54 1 10.35 17.2493 3.15041e-18 0 0 0 
161 54 2 11.1641 17.8277 3.96248e-18 0 0 0 
162 54 2 9.53593 17.8277 4.20164e-18 0 0 0 
165 55 2 12.9859 17.8277 3.84059e-18 0 0 0 
428 143 2 7.71407 14.3777 3.45 0 0 0 
431 144 2 11.1641 14.3777 3.45 0 0 0 
432 144 2 9.53593 14.3777 3.45 0 0 0 
435 145 2 12.9859 14.3777 3.45 0 0 0 
458 153 2 7.71407 17.8277 3.45 0 0 0 
460 154 1 10.35 17.2493 3.45 0 0 0 
461 154 2 11.1641 17.8277 3.45 0 0 0 
462 154 2 9.53593 17.8277 3.45 0 0 0 
465 155 2 12.9859 17.8277 3.45 0 0 0 
190 64 1 10.35 20.6993 0 0 0 0 
490 164 1 10.35 20.6993 3.45 0 0 0 
731 244 2 11.1641 14.3777 6.9 0 0 0 
760 254 1 10.35 17.2493 6.9 0 0 0 
761 254 2 11.1641 17.8277 6.9 0 0 0 
134 45 2 14.6141 14.3777 4.69109e-18 0 0 0 
137 46 2 18.0641 14.3777 1.02577e-17 0 0 0 
138 46 2 16.4359 14.3777 1.01088e-17 0 0 0 
141 47 2 19.8859 14.3777 6.27326e-18 0 0 0 
163 55 1 13.8 17.2493 2.80849e-18 0 0 0 
164 55 2 14.6141 17.8277 3.15039e-18 0 0 0 
166 56 1 17.25 17.2493 0 0 0 0 
167 56 2 18.0641 17.8277 7.70505e-18 0 0 0 
168 56 2 16.4359 17.8277 7.76234e-18 0 0 0 
171 57 2 19.8859 17.8277 1.7126e-18 0 0 0 
434 145 2 14.6141 14.3777 3.45 0 0 0 
437 146 2 18.0641 14.3777 3.45 0 0 0 
438 146 2 16.4359 14.3777 3.45 0 0 0 
441 147 2 19.8859 14.3777 3.45 0 0 0 
463 155 1 13.8 17.2493 3.45 0 0 0 
464 155 2 14.6141 17.8277 3.45 0 0 0 
466 156 1 17.25 17.2493 3.45 0 0 0 
467 156 2 18.0641 17.8277 3.45 0 0 0 
468 156 2 16.4359 17.8277 3.45 0 0 0 
471 157 2 19.8859 17.8277 3.45 0 0 0 
169 57 1 20.7 17.2493 1.65268e-18 0 0 0 
469 157 1 20.7 17.2493 3.45 0 0 0 
193 65 1 13.8 20.6993 0 0 0 0 
196 66 1 17.25 20.6993 0 0 0 0 
493 165 1 13.8 20.6993 3.45 0 0 0 
496 166 1 17.25 20.6993 3.45 0 0 0 
199 67 1 20.7 20.6993 0 0 0 0 
499 167 1 20.7 20.6993 3.45 0 0 0 
734 245 2 14.6141 14.3777 6.9 0 0 0 
741 247 2 19.8859 14.3777 6.9 0 0 0 
763 255 1 13.8 17.2493 6.9 0 0 0 
764 255 2 14.6141 17.8277 6.9 0 0 0 
766 256 1 17.25 17.2493 6.9 0 0 0 
771 257 2 19.8859 17.8277 6.9 0 0 0 
769 257 1 20.7 17.2493 6.9 0 0 0 
793 265 1 13.8 20.6993 6.9 0 0 0 
796 266 1 17.25 20.6993 6.9 0 0 0 
799 267 1 20.7 20.6993 6.9 0 0 0 
140 47 2 21.5141 14.3777 6.81165e-18 0 0 0 
143 48 2 24.9641 14.3777 1.48951e-17 0 0 0 
144 48 2 23.3359 14.3777 1.2197e-17 0 0 0 
147 49 2 26.7859 14.3777 1.39123e-17 0 0 0 
170 57 2 21.5141 17.8277 3.38662e-18 0 0 0 
172 58 1 24.15 17.2493 3.23066e-18 0 0 0 
173 58 2 24.9641 17.8277 3.98027e-18 0 0 0 
174 58 2 23.3359 17.8277 3.26545e-18 0 0 0 
177 59 2 26.7859 17.8277 4.54664e-18 0 0 0 
440 147 2 21.5141 14.3777 3.45 0 0 0 
443 148 2 24.9641 14.3777 3.45 0 0 0 
444 148 2 23.3359 14.3777 3.45 0 0 0 
447 149 2 26.7859 14.3777 3.45 0 0 0 
470 157 2 21.5141 17.8277 3.45 0 0 0 
472 158 1 24.15 17.2493 3.45 0 0 0 
473 158 2 24.9641 17.8277 3.45 0 0 0 
474 158 2 23.3359 17.8277 3.45 0 0 0 
477 159 2 26.7859 17.8277 3.45 0 0 0 
202 68 1 24.15 20.6993 0 0 0 0 
502 168 1 24.15 20.6993 3.45 0 0 0 
744 248 2 23.3359 14.3777 6.9 0 0 0 
772 258 1 24.15 17.2493 6.9 0 0 0 
774 258 2 23.3359 17.8277 6.9 0 0 0 
123 41 2 33.6859 14.3777 7.73376e-18 -1 0 0 
146 49 2 28.4141 14.3777 1.27437e-17 0 0 0 
149 50 2 31.8641 14.3777 4.02554e-18 0 0 0 
150 50 2 30.2359 14.3777 6.4583e-18 0 0 0 
153 51 2 33.6859 17.8277 8.96874e-18 -1 0 0 
175 59 1 27.6 17.2493 3.38335e-18 0 0 0 
176 59 2 28.4141 17.8277 3.5127e-18 0 0 0 
178 60 1 31.05 17.2493 2.2146e-18 0 0 0 
179 60 2 31.8641 17.8277 3.77741e-18 0 0 0 
180 60 2 30.2359 17.8277 3.35323e-18 0 0 0 
423 141 2 33.6859 14.3777 3.45 -1 0 0 
446 149 2 28.4141 14.3777 3.45 0 0 0 
449 150 2 31.8641 14.3777 3.45 0 0 0 
450 150 2 30.2359 14.3777 3.45 0 0 0 
453 151 2 33.6859 17.8277 3.45 -1 0 0 
475 159 1 27.6 17.2493 3.45 0 0 0 
476 159 2 28.4141 17.8277 3.45 0 0 0 
478 160 1 31.05 17.2493 3.45 0 0 0 
479 160 2 31.8641 17.8277 3.45 0 0 0 
480 160 2 30.2359 17.8277 3.45 0 0 0 
205 69 1 27.6 20.6993 0 0 0 0 
208 70 1 31.05 20.6993 0 0 0 0 
505 169 1 27.6 20.6993 3.45 0 0 0 
508 170 1 31.05 20.6993 3.45 0 0 0 
746 249 2 28.4141 14.3777 6.9 0 0 0 
749 250 2 31.8641 14.3777 6.9 0 0 0 
775 259 1 27.6 17.2493 6.9 0 0 0 
776 259 2 28.4141 17.8277 6.9 0 0 0 
778 260 1 31.05 17.2493 6.9 0 0 0 
779 260 2 31.8641 17.8277 6.9 0 0 0 
808 270 1 31.05 20.6993 6.9 0 0 0 
182 61 2 0.81407 21.2777 7.60251e-18 0 0 0 
185 62 2 4.26407 21.2777 1.21254e-17 0 0 0 
186 62 2 2.63593 21.2777 1.02963e-17 0 0 0 
189 63 2 6.08593 21.2777 1.10021e-17 0 0 0 
211 71 1 0 24.1493 0 0 0 0 
212 71 2 0.814069 24.7277 2.43078e-18 0 0 0 
214 72 1 3.44999 24.1493 0 0 0 0 
215 72 2 4.26407 24.7277 7.41365e-18 0 0 0 
216 72 2 2.63593 24.7277 1.10707e-17 0 0 0 
219 73 2 6.08593 24.7277 6.38448e-18 0 0 0 
482 161 2 0.81407 21.2777 3.45 0 0 0 
485 162 2 4.26407 21.2777 3.45 0 0 0 
486 162 2 2.63593 21.2777 3.45 0 0 0 
489 163 2 6.08593 21.2777 3.45 0 0 0 
511 171 1 0 24.1493 3.45 0 0 0 
512 171 2 0.814069 24.7277 3.45 0 0 0 
514 172 1 3.44999 24.1493 3.45 0 0 0 
515 172 2 4.26407 24.7277 3.45 0 0 0 
516 172 2 2.63593 24.7277 3.45 0 0 0 
519 173 2 6.08593 24.7277 3.45 0 0 0 
217 73 1 6.9 24.1493 0 0 0 0 
517 173 1 6.9 24.1493 3.45 0 0 0 
241 81 1 0 27.5993 0 0 0 0 
244 82 1 3.44999 27.5993 0 0 0 0 
541 181 1 2.33224e-15 27.5993 3.45 0 0 0 
544 182 1 3.44999 27.5993 3.45 0 0 0 
247 83 1 6.9 27.5993 0 0 0 0 
547 183 1 6.9 27.5993 3.45 0 0 0 
786 262 2 2.63593 21.2777 6.9 0 0 0 
789 263 2 6.08593 21.2777 6.9 0 0 0 
811 271 1 0 24.1493 6.9 0 0 0 
812 271 2 0.814069 24.7277 6.9 0 0 0 
816 272 2 2.63593 24.7277 6.9 0 0 0 
819 273 2 6.08593 24.7277 6.9 0 0 0 
841 281 1 8.39342e-16 27.5993 6.9 0 0 0 
844 282 1 3.44999 27.5993 6.9 0 0 0 
847 283 1 6.9 27.5993 6.9 0 0 0 
188 63 2 7.71407 21.2777 9.12143e-18 0 0 0 
191 64 2 11.1641 21.2777 1.06605e-17 0 0 0 
192 64 2 9.53593 21.2777 9.51245e-18 0 0 0 
195 65 2 12.9859 21.2777 1.21183e-17 0 0 0 
218 73 2 7.71407 24.7277 5.31617e-18 0 0 0 
220 74 1 10.35 24.1493 0 0 0 0 
221 74 2 11.1641 24.7277 4.91355e-18 0 0 0 
222 74 2 9.53593 24.7277 4.66364e-18 0 0 0 
225 75 2 12.9859 24.7277 7.67255e-18 0 0 0 
488 163 2 7.71407 21.2777 3.45 0 0 0 
491 164 2 11.1641 21.2777 3.45 0 0 0 
492 164 2 9.53593 21.2777 3.45 0 0 0 
495 165 2 12.9859 21.2777 3.45 0 0 0 
518 173 2 7.71407 24.7277 3.45 0 0 0 
520 174 1 10.35 24.1493 3.45 0 0 0 
521 174 2 11.1641 24.7277 3.45 0 0 0 
522 174 2 9.53593 24.7277 3.45 0 0 0 
525 175 2 12.9859 24.7277 3.45 0 0 0 
250 84 1 10.35 27.5993 0 0 0 0 
550 184 1 10.35 27.5993 3.45 0 0 0 
791 264 2 11.1641 21.2777 6.9 0 0 0 
818 273 2 7.71407 24.7277 6.9 0 0 0 
821 274 2 11.1641 24.7277 6.9 0 0 0 
822 274 2 9.53593 24.7277 6.9 0 0 0 
850 284 1 10.35 27.5993 6.9 0 0 0 
194 65 2 14.6141 21.2777 9.05113e-18 0 0 0 
197 66 2 18.0641 21.2777 5.82526e-18 0 0 0 
198 66 2 16.4359 21.2777 7.05462e-18 0 0 0 
201 67 2 19.8859 21.2777 9.92192e-18 0 0 0 
223 75 1 13.8 24.1493 0 0 0 0 
224 75 2 14.6141 24.7277 1.07428e-17 0 0 0 
226 76 1 17.25 24.1493 0 0 0 0 
227 76 2 18.0641 24.7277 4.33482e-18 0 0 0 
228 76 2 16.4359 24.7277 4.53238e-18 0 0 0 
231 77 2 19.8859 24.7277 1.02611e-17 0 0 0 
494 165 2 14.6141 21.2777 3.45 0 0 0 
497 166 2 18.0641 21.2777 3.45 0 0 0 
498 166 2 16.4359 21.2777 3.45 0 0 0 
501 167 2 19.8859 21.2777 3.45 0 0 0 
523 175 1 13.8 24.1493 3.45 0 0 0 
524 175 2 14.6141 24.7277 3.45 0 0 0 
526 176 1 17.25 24.1493 3.45 0 0 0 
527 176 2 18.0641 24.7277 3.45 0 0 0 
528 176 2 16.4359 24.7277 3.45 0 0 0 
531 177 2 19.8859 24.7277 3.45 0 0 0 
229 77 1 20.7 24.1493 0 0 0 0 
529 177 1 20.7 24.1493 3.45 0 0 0 
253 85 1 13.8 27.5993 0 0 0 0 
256 86 1 17.25 27.5993 0 0 0 0 
553 185 1 13.8 27.5993 3.45 0 0 0 
556 186 1 17.25 27.5993 3.45 0 0 0 
259 87 1 20.7 27.5993 0 0 0 0 
559 187 1 20.7 27.5993 3.45 0 0 0 
794 265 2 14.6141 21.2777 6.9 0 0 0 
801 267 2 19.8859 21.2777 6.9 0 0 0 
824 275 2 14.6141 24.7277 6.9 0 0 0 
826 276 1 17.25 24.1493 6.9 0 0 0 
827 276 2 18.0641 24.7277 6.9 0 0 0 
828 276 2 16.4359 24.7277 6.9 0 0 0 
831 277 2 19.8859 24.7277 6.9 0 0 0 
853 285 1 13.8 27.5993 6.9 0 0 0 
856 286 1 17.25 27.5993 6.9 0 0 0 
859 287 1 20.7 27.5993 6.9 0 0 0 
200 67 2 21.5141 21.2777 1.12877e-17 0 0 0 
203 68 2 24.9641 21.2777 1.08669e-17 0 0 0 
204 68 2 23.3359 21.2777 1.15494e-17 0 0 0 
207 69 2 26.7859 21.2777 1.13576e-17 0 0 0 
230 77 2 21.5141 24.7277 8.14891e-18 0 0 0 
232 78 1 24.15 24.1493 0 0 0 0 
233 78 2 24.9641 24.7277 4.87311e-18 0 0 0 
234 78 2 23.3359 24.7277 5.96925e-18 0 0 0 
237 79 2 26.7859 24.7277 5.43589e-18 0 0 0 
500 167 2 21.5141 21.2777 3.45 0 0 0 
503 168 2 24.9641 21.2777 3.45 0 0 0 
504 168 2 23.3359 21.2777 3.45 0 0 0 
507 169 2 26.7859 21.2777 3.45 0 0 0 
530 177 2 21.5141 24.7277 3.45 0 0 0 
532 178 1 24.15 24.1493 3.45 0 0 0 
533 178 2 24.9641 24.7277 3.45 0 0 0 
534 178 2 23.3359 24.7277 3.45 0 0 0 
537 179 2 26.7859 24.7277 3.45 0 0 0 
262 88 1 24.15 27.5993 0 0 0 0 
562 188 1 24.15 27.5993 3.45 0 0 0 
804 268 2 23.3359 21.2777 6.9 0 0 0 
833 278 2 24.9641 24.7277 6.9 0 0 0 
834 278 2 23.3359 24.7277 6.9 0 0 0 
837 279 2 26.7859 24.7277 6.9 0 0 0 
862 288 1 24.15 27.5993 6.9 0 0 0 
183 61 2 33.6859 21.2777 1.05308e-17 -1 0 0 
206 69 2 28.4141 21.2777 1.22495e-17 0 0 0 
209 70 2 31.8641 21.2777 1.07517e-17 0 0 0 
210 70 2 30.2359 21.2777 1.16816e-17 0 0 0 
213 71 2 33.6859 24.7277 5.76823e-18 -1 0 0 
235 79 1 27.6 24.1493 0 0 0 0 
236 79 2 28.4141 24.7277 5.39726e-18 0 0 0 
238 80 1 31.05 24.1493 0 0 0 0 
239 80 2 31.8641 24.7277 1.07339e-17 0 0 0 
240 80 2 30.2359 24.7277 7.45552e-18 0 0 0 
483 161 2 33.6859 21.2777 3.45 -1 0 0 
506 169 2 28.4141 21.2777 3.45 0 0 0 
509 170 2 31.8641 21.2777 3.45 0 0 0 
510 170 2 30.2359 21.2777 3.45 0 0 0 
513 171 2 33.6859 24.7277 3.45 -1 0 0 
535 179 1 27.6 24.1493 3.45 0 0 0 
536 179 2 28.4141 24.7277 3.45 0 0 0 
538 180 1 31.05 24.1493 3.45 0 0 0 
539 180 2 31.8641 24.7277 3.45 0 0 0 
540 180 2 30.2359 24.7277 3.45 0 0 0 
265 89 1 27.6 27.5993 0 0 0 0 
268 90 1 31.05 27.5993 0 0 0 0 
565 189 1 27.6 27.5993 3.45 0 0 0 
568 190 1 31.05 27.5993 3.45 0 0 0 
806 269 2 28.4141 21.2777 6.9 0 0 0 
809 270 2 31.8641 21.2777 6.9 0 0 0 
813 271 2 33.6859 24.7277 6.9 -1 0 0 
836 279 2 28.4141 24.7277 6.9 0 0 0 
839 280 2 31.8641 24.7277 6.9 0 0 0 
865 289 1 27.6 27.5993 6.9 0 0 0 
868 290 1 31.05 27.5993 6.9 0 0 0 
1 1 1 1.82235e-15 34.4993 0 0 -1 0 
4 2 1 3.44999 34.4993 9.5162e-19 0 -1 0 
301 101 1 0 34.4993 3.45 0 -1 0 
304 102 1 3.44999 34.4993 3.45 0 -1 0 
7 3 1 6.9 34.4993 1.25637e-18 0 -1 0 
307 103 1 6.9 34.4993 3.45 0 -1 0 
242 81 2 0.814068 28.1777 8.16603e-18 0 0 0 
245 82 2 4.26407 28.1777 1.17016e-17 0 0 0 
246 82 2 2.63593 28.1777 7.97503e-18 0 0 0 
249 83 2 6.08593 28.1777 1.54304e-17 0 0 0 
271 91 1 9.81918e-16 31.0493 0 0 0 0 
272 91 2 0.814069 31.6277 1.1052e-17 0 0 0 
274 92 1 3.44999 31.0493 0 0 0 0 
275 92 2 4.26407 31.6277 6.51574e-18 0 0 0 
276 92 2 2.63593 31.6277 5.69557e-18 0 0 0 
279 93 2 6.08593 31.6277 1.37164e-17 0 0 0 
542 181 2 0.814068 28.1777 3.45 0 0 0 
545 182 2 4.26407 28.1777 3.45 0 0 0 
546 182 2 2.63593 28.1777 3.45 0 0 0 
549 183 2 6.08593 28.1777 3.45 0 0 0 
571 191 1 0 31.0493 3.45 0 0 0 
572 191 2 0.814069 31.6277 3.45 0 0 0 
574 192 1 3.44999 31.0493 3.45 0 0 0 
575 192 2 4.26407 31.6277 3.45 0 0 0 
576 192 2 2.63593 31.6277 3.45 0 0 0 
579 193 2 6.08593 31.6277 3.45 0 0 0 
277 93 1 6.9 31.0493 0 0 0 0 
577 193 1 6.9 31.0493 3.45 0 0 0 
601 201 1 7.92778e-16 34.4993 6.9 0 -1 0 
604 202 1 3.44999 34.4993 6.9 0 -1 0 
607 203 1 6.9 34.4993 6.9 0 -1 0 
842 281 2 0.814068 28.1777 6.9 0 0 0 
846 282 2 2.63593 28.1777 6.9 0 0 0 
849 283 2 6.08593 28.1777 6.9 0 0 0 
871 291 1 1.35574e-15 31.0493 6.9 0 0 0 
874 292 1 3.44999 31.0493 6.9 0 0 0 
876 292 2 2.63593 31.6277 6.9 0 0 0 
879 293 2 6.08593 31.6277 6.9 0 0 0 
877 293 1 6.9 31.0493 6.9 0 0 0 
10 4 1 10.35 34.4993 2.3738e-18 0 -1 0 
310 104 1 10.35 34.4993 3.45 0 -1 0 
248 83 2 7.71407 28.1777 1.21179e-17 0 0 0 
251 84 2 11.1641 28.1777 1.59155e-17 0 0 0 
252 84 2 9.53593 28.1777 1.19432e-17 0 0 0 
255 85 2 12.9859 28.1777 1.00789e-17 0 0 0 
278 93 2 7.71407 31.6277 1.44099e-17 0 0 0 
280 94 1 10.35 31.0493 0 0 0 0 
281 94 2 11.1641 31.6277 1.3078e-17 0 0 0 
282 94 2 9.53593 31.6277 1.51968e-17 0 0 0 
285 95 2 12.9859 31.6277 6.31569e-18 0 0 0 
548 183 2 7.71407 28.1777 3.45 0 0 0 
551 184 2 11.1641 28.1777 3.45 0 0 0 
552 184 2 9.53593 28.1777 3.45 0 0 0 
555 185 2 12.9859 28.1777 3.45 0 0 0 
578 193 2 7.71407 31.6277 3.45 0 0 0 
580 194 1 10.35 31.0493 3.45 0 0 0 
581 194 2 11.1641 31.6277 3.45 0 0 0 
582 194 2 9.53593 31.6277 3.45 0 0 0 
585 195 2 12.9859 31.6277 3.45 0 0 0 
610 204 1 10.35 34.4993 6.9 0 -1 0 
848 283 2 7.71407 28.1777 6.9 0 0 0 
851 284 2 11.1641 28.1777 6.9 0 0 0 
852 284 2 9.53593 28.1777 6.9 0 0 0 
880 294 1 10.35 31.0493 6.9 0 0 0 
881 294 2 11.1641 31.6277 6.9 0 0 0 
13 5 1 13.8 34.4993 2.88999e-18 0 -1 0 
16 6 1 17.25 34.4993 0 0 -1 0 
313 105 1 13.8 34.4993 3.45 0 -1 0 
316 106 1 17.25 34.4993 3.45 0 -1 0 
19 7 1 20.7 34.4993 1.55673e-18 0 -1 0 
319 107 1 20.7 34.4993 3.45 0 -1 0 
254 85 2 14.6141 28.1777 7.90912e-18 0 0 0 
257 86 2 18.0641 28.1777 8.95917e-18 0 0 0 
258 86 2 16.4359 28.1777 8.39256e-18 0 0 0 
261 87 2 19.8859 28.1777 7.35376e-18 0 0 0 
283 95 1 13.8 31.0493 0 0 0 0 
284 95 2 14.6141 31.6277 6.64445e-18 0 0 0 
286 96 1 17.25 31.0493 0 0 0 0 
287 96 2 18.0641 31.6277 1.07557e-17 0 0 0 
288 96 2 16.4359 31.6277 1.04335e-17 0 0 0 
291 97 2 19.8859 31.6277 7.4635e-18 0 0 0 
554 185 2 14.6141 28.1777 3.45 0 0 0 
557 186 2 18.0641 28.1777 3.45 0 0 0 
558 186 2 16.4359 28.1777 3.45 0 0 0 
561 187 2 19.8859 28.1777 3.45 0 0 0 
583 195 1 13.8 31.0493 3.45 0 0 0 
584 195 2 14.6141 31.6277 3.45 0 0 0 
586 196 1 17.25 31.0493 3.45 0 0 0 
587 196 2 18.0641 31.6277 3.45 0 0 0 
588 196 2 16.4359 31.6277 3.45 0 0 0 
591 197 2 19.8859 31.6277 3.45 0 0 0 
289 97 1 20.7 31.0493 0 0 0 0 
589 197 1 20.7 31.0493 3.45 0 0 0 
613 205 1 13.8 34.4993 6.9 0 -1 0 
616 206 1 17.25 34.4993 6.9 0 -1 0 
619 207 1 20.7 34.4993 6.9 0 -1 0 
854 285 2 14.6141 28.1777 6.9 0 0 0 
857 286 2 18.0641 28.1777 6.9 0 0 0 
858 286 2 16.4359 28.1777 6.9 0 0 0 
861 287 2 19.8859 28.1777 6.9 0 0 0 
883 295 1 13.8 31.0493 6.9 0 0 0 
884 295 2 14.6141 31.6277 6.9 0 0 0 
886 296 1 17.25 31.0493 6.9 0 0 0 
891 297 2 19.8859 31.6277 6.9 0 0 0 
889 297 1 20.7 31.0493 6.9 0 0 0 
22 8 1 24.15 34.4993 1.25423e-18 0 -1 0 
322 108 1 24.15 34.4993 3.45 0 -1 0 
260 87 2 21.5141 28.1777 1.04265e-17 0 0 0 
263 88 2 24.9641 28.1777 1.1672e-17 0 0 0 
264 88 2 23.3359 28.1777 1.57996e-17 0 0 0 
267 89 2 26.7859 28.1777 1.29095e-17 0 0 0 
290 97 2 21.5141 31.6277 6.5465e-18 0 0 0 
292 98 1 24.15 31.0493 0 0 0 0 
293 98 2 24.9641 31.6277 1.35638e-17 0 0 0 
294 98 2 23.3359 31.6277 1.33924e-17 0 0 0 
297 99 2 26.7859 31.6277 1.40547e-17 0 0 0 
560 187 2 21.5141 28.1777 3.45 0 0 0 
563 188 2 24.9641 28.1777 3.45 0 0 0 
564 188 2 23.3359 28.1777 3.45 0 0 0 
567 189 2 26.7859 28.1777 3.45 0 0 0 
590 197 2 21.5141 31.6277 3.45 0 0 0 
592 198 1 24.15 31.0493 3.45 0 0 0 
593 198 2 24.9641 31.6277 3.45 0 0 0 
594 198 2 23.3359 31.6277 3.45 0 0 0 
597 199 2 26.7859 31.6277 3.45 0 0 0 
622 208 1 24.15 34.4993 6.9 0 -1 0 
863 288 2 24.9641 28.1777 6.9 0 0 0 
864 288 2 23.3359 28.1777 6.9 0 0 0 
867 289 2 26.7859 28.1777 6.9 0 0 0 
892 298 1 24.15 31.0493 6.9 0 0 0 
894 298 2 23.3359 31.6277 6.9 0 0 0 
25 9 1 27.6 34.4993 1.60501e-18 0 -1 0 
28 10 1 31.05 34.4993 2.28139e-18 0 -1 0 
325 109 1 27.6 34.4993 3.45 0 -1 0 
328 110 1 31.05 34.4993 3.45 0 -1 0 
243 81 2 33.6859 28.1777 9.57907e-18 -1 0 0 
266 89 2 28.4141 28.1777 1.61783e-17 0 0 0 
269 90 2 31.8641 28.1777 8.33597e-18 0 0 0 
270 90 2 30.2359 28.1777 1.0387e-17 0 0 0 
273 91 2 33.6859 31.6277 9.61772e-18 -1 0 0 
295 99 1 27.6 31.0493 0 0 0 0 
296 99 2 28.4141 31.6277 1.33464e-17 0 0 0 
298 100 1 31.05 31.0493 0 0 0 0 
299 100 2 31.8641 31.6277 4.96031e-18 0 0 0 
300 100 2 30.2359 31.6277 5.86332e-18 0 0 0 
543 181 2 33.6859 28.1777 3.45 -1 0 0 
566 189 2 28.4141 28.1777 3.45 0 0 0 
569 190 2 31.8641 28.1777 3.45 0 0 0 
570 190 2 30.2359 28.1777 3.45 0 0 0 
573 191 2 33.6859 31.6277 3.45 -1 0 0 
595 199 1 27.6 31.0493 3.45 0 0 0 
596 199 2 28.4141 31.6277 3.45 0 0 0 
598 200 1 31.05 31.0493 3.45 0 0 0 
599 200 2 31.8641 31.6277 3.45 0 0 0 
600 200 2 30.2359 31.6277 3.45 0 0 0 
625 209 1 27.6 34.4993 6.9 0 -1 0 
628 210 1 31.05 34.4993 6.9 0 -1 0 