ITEM: TIMESTEP
0
ITEM: NUMBER OF ATOMS
3000
ITEM: BOX BOUNDS pp pp pp
0.0000000000000000e+00 3.4500000000000000e+01
0.0000000000000000e+00 3.4500000000000000e+01
0.0000000000000000e+00 3.4500000000000000e+01
ITEM: ATOMS id mol type x y z ix iy iz 
1 1 1 0 0 0 0 0 0 
2 1 2 0.81649 0.577359 0 0 0 0 
4 2 1 3.45 0 0 0 0 0 
5 2 2 4.26649 0.577359 0 0 0 0 
6 2 2 2.63351 0.577359 0 0 0 0 
9 3 2 6.08351 0.577359 0 0 0 0 
31 11 1 0 3.45 0 0 0 0 
32 11 2 0.81649 4.02736 0 0 0 0 
34 12 1 3.45 3.45 0 0 0 0 
35 12 2 4.26649 4.02736 0 0 0 0 
36 12 2 2.63351 4.02736 0 0 0 0 
39 13 2 6.08351 4.02736 0 0 0 0 
301 101 1 0 0 3.45 0 0 0 
302 101 2 0.81649 0.577359 3.45 0 0 0 
304 102 1 3.45 0 3.45 0 0 0 
305 102 2 4.26649 0.577359 3.45 0 0 0 
306 102 2 2.63351 0.577359 3.45 0 0 0 
309 103 2 6.08351 0.577359 3.45 0 0 0 
331 111 1 0 3.45 3.45 0 0 0 
332 111 2 0.81649 4.02736 3.45 0 0 0 
334 112 1 3.45 3.45 3.45 0 0 0 
335 112 2 4.26649 4.02736 3.45 0 0 0 
336 112 2 2.63351 4.02736 3.45 0 0 0 
339 113 2 6.08351 4.02736 3.45 0 0 0 
7 3 1 6.9 0 0 0 0 0 
8 3 2 7.71649 0.577359 0 0 0 0 
10 4 1 10.35 0 0 0 0 0 
11 4 2 11.1665 0.577359 0 0 0 0 
12 4 2 9.53351 0.577359 0 0 0 0 
15 5 2 12.9835 0.577359 0 0 0 0 
37 13 1 6.9 3.45 0 0 0 0 
38 13 2 7.71649 4.02736 0 0 0 0 
40 14 1 10.35 3.45 0 0 0 0 
41 14 2 11.1665 4.02736 0 0 0 0 
42 14 2 9.53351 4.02736 0 0 0 0 
45 15 2 12.9835 4.02736 0 0 0 0 
307 103 1 6.9 0 3.45 0 0 0 
308 103 2 7.71649 0.577359 3.45 0 0 0 
310 104 1 10.35 0 3.45 0 0 0 
311 104 2 11.1665 0.577359 3.45 0 0 0 
312 104 2 9.53351 0.577359 3.45 0 0 0 
315 105 2 12.9835 0.577359 3.45 0 0 0 
337 113 1 6.9 3.45 3.45 0 0 0 
338 113 2 7.71649 4.02736 3.45 0 0 0 
340 114 1 10.35 3.45 3.45 0 0 0 
341 114 2 11.1665 4.02736 3.45 0 0 0 
342 114 2 9.53351 4.02736 3.45 0 0 0 
345 115 2 12.9835 4.02736 3.45 0 0 0 
13 5 1 13.8 0 0 0 0 0 
14 5 2 14.6165 0.577359 0 0 0 0 
16 6 1 17.25 0 0 0 0 0 
17 6 2 18.0665 0.577359 0 0 0 0 
18 6 2 16.4335 0.577359 0 0 0 0 
21 7 2 19.8835 0.577359 0 0 0 0 
43 15 1 13.8 3.45 0 0 0 0 
44 15 2 14.6165 4.02736 0 0 0 0 
46 16 1 17.25 3.45 0 0 0 0 
47 16 2 18.0665 4.02736 0 0 0 0 
48 16 2 16.4335 4.02736 0 0 0 0 
51 17 2 19.8835 4.02736 0 0 0 0 
313 105 1 13.8 0 3.45 0 0 0 
314 105 2 14.6165 0.577359 3.45 0 0 0 
316 106 1 17.25 0 3.45 0 0 0 
317 106 2 18.0665 0.577359 3.45 0 0 0 
318 106 2 16.4335 0.577359 3.45 0 0 0 
321 107 2 19.8835 0.577359 3.45 0 0 0 
343 115 1 13.8 3.45 3.45 0 0 0 
344 115 2 14.6165 4.02736 3.45 0 0 0 
346 116 1 17.25 3.45 3.45 0 0 0 
347 116 2 18.0665 4.02736 3.45 0 0 0 
348 116 2 16.4335 4.02736 3.45 0 0 0 
351 117 2 19.8835 4.02736 3.45 0 0 0 
19 7 1 20.7 0 0 0 0 0 
20 7 2 21.5165 0.577359 0 0 0 0 
22 8 1 24.15 0 0 0 0 0 
23 8 2 24.9665 0.577359 0 0 0 0 
24 8 2 23.3335 0.577359 0 0 0 0 
27 9 2 26.7835 0.577359 0 0 0 0 
49 17 1 20.7 3.45 0 0 0 0 
50 17 2 21.5165 4.02736 0 0 0 0 
52 18 1 24.15 3.45 0 0 0 0 
53 18 2 24.9665 4.02736 0 0 0 0 
54 18 2 23.3335 4.02736 0 0 0 0 
57 19 2 26.7835 4.02736 0 0 0 0 
319 107 1 20.7 0 3.45 0 0 0 
320 107 2 21.5165 0.577359 3.45 0 0 0 
322 108 1 24.15 0 3.45 0 0 0 
323 108 2 24.9665 0.577359 3.45 0 0 0 
324 108 2 23.3335 0.577359 3.45 0 0 0 
327 109 2 26.7835 0.577359 3.45 0 0 0 
349 117 1 20.7 3.45 3.45 0 0 0 
350 117 2 21.5165 4.02736 3.45 0 0 0 
352 118 1 24.15 3.45 3.45 0 0 0 
353 118 2 24.9665 4.02736 3.45 0 0 0 
354 118 2 23.3335 4.02736 3.45 0 0 0 
357 119 2 26.7835 4.02736 3.45 0 0 0 
3 1 2 33.6835 0.577359 0 -1 0 0 
25 9 1 27.6 0 0 0 0 0 
26 9 2 28.4165 0.577359 0 0 0 0 
28 10 1 31.05 0 0 0 0 0 
29 10 2 31.8665 0.577359 0 0 0 0 
30 10 2 30.2335 0.577359 0 0 0 0 
33 11 2 33.6835 4.02736 0 -1 0 0 
55 19 1 27.6 3.45 0 0 0 0 
56 19 2 28.4165 4.02736 0 0 0 0 
58 20 1 31.05 3.45 0 0 0 0 
59 20 2 31.8665 4.02736 0 0 0 0 
60 20 2 30.2335 4.02736 0 0 0 0 
303 101 2 33.6835 0.577359 3.45 -1 0 0 
325 109 1 27.6 0 3.45 0 0 0 
326 109 2 28.4165 0.577359 3.45 0 0 0 
328 110 1 31.05 0 3.45 0 0 0 
329 110 2 31.8665 0.577359 3.45 0 0 0 
330 110 2 30.2335 0.577359 3.45 0 0 0 
333 111 2 33.6835 4.02736 3.45 -1 0 0 
355 119 1 27.6 3.45 3.45 0 0 0 
356 119 2 28.4165 4.02736 3.45 0 0 0 
358 120 1 31.05 3.45 3.45 0 0 0 
359 120 2 31.8665 4.02736 3.45 0 0 0 
360 120 2 30.2335 4.02736 3.45 0 0 0 
61 21 1 0 6.9 0 0 0 0 
62 21 2 0.81649 7.47736 0 0 0 0 
64 22 1 3.45 6.9 0 0 0 0 
65 22 2 4.26649 7.47736 0 0 0 0 
66 22 2 2.63351 7.47736 0 0 0 0 
69 23 2 6.08351 7.47736 0 0 0 0 
91 31 1 0 10.35 0 0 0 0 
92 31 2 0.81649 10.9274 0 0 0 0 
94 32 1 3.45 10.35 0 0 0 0 
95 32 2 4.26649 10.9274 0 0 0 0 
96 32 2 2.63351 10.9274 0 0 0 0 
99 33 2 6.08351 10.9274 0 0 0 0 
361 121 1 0 6.9 3.45 0 0 0 
362 121 2 0.81649 7.47736 3.45 0 0 0 
364 122 1 3.45 6.9 3.45 0 0 0 
365 122 2 4.26649 7.47736 3.45 0 0 0 
366 122 2 2.63351 7.47736 3.45 0 0 0 
369 123 2 6.08351 7.47736 3.45 0 0 0 
391 131 1 0 10.35 3.45 0 0 0 
392 131 2 0.81649 10.9274 3.45 0 0 0 
394 132 1 3.45 10.35 3.45 0 0 0 
395 132 2 4.26649 10.9274 3.45 0 0 0 
396 132 2 2.63351 10.9274 3.45 0 0 0 
399 133 2 6.08351 10.9274 3.45 0 0 0 
67 23 1 6.9 6.9 0 0 0 0 
68 23 2 7.71649 7.47736 0 0 0 0 
70 24 1 10.35 6.9 0 0 0 0 
71 24 2 11.1665 7.47736 0 0 0 0 
72 24 2 9.53351 7.47736 0 0 0 0 
75 25 2 12.9835 7.47736 0 0 0 0 
97 33 1 6.9 10.35 0 0 0 0 
98 33 2 7.71649 10.9274 0 0 0 0 
100 34 1 10.35 10.35 0 0 0 0 
101 34 2 11.1665 10.9274 0 0 0 0 
102 34 2 9.53351 10.9274 0 0 0 0 
105 35 2 12.9835 10.9274 0 0 0 0 
367 123 1 6.9 6.9 3.45 0 0 0 
368 123 2 7.71649 7.47736 3.45 0 0 0 
370 124 1 10.35 6.9 3.45 0 0 0 
371 124 2 11.1665 7.47736 3.45 0 0 0 
372 124 2 9.53351 7.47736 3.45 0 0 0 
375 125 2 12.9835 7.47736 3.45 0 0 0 
397 133 1 6.9 10.35 3.45 0 0 0 
398 133 2 7.71649 10.9274 3.45 0 0 0 
400 134 1 10.35 10.35 3.45 0 0 0 
401 134 2 11.1665 10.9274 3.45 0 0 0 
402 134 2 9.53351 10.9274 3.45 0 0 0 
405 135 2 12.9835 10.9274 3.45 0 0 0 
73 25 1 13.8 6.9 0 0 0 0 
74 25 2 14.6165 7.47736 0 0 0 0 
76 26 1 17.25 6.9 0 0 0 0 
77 26 2 18.0665 7.47736 0 0 0 0 
78 26 2 16.4335 7.47736 0 0 0 0 
81 27 2 19.8835 7.47736 0 0 0 0 
103 35 1 13.8 10.35 0 0 0 0 
104 35 2 14.6165 10.9274 0 0 0 0 
106 36 1 17.25 10.35 0 0 0 0 
107 36 2 18.0665 10.9274 0 0 0 0 
108 36 2 16.4335 10.9274 0 0 0 0 
111 37 2 19.8835 10.9274 0 0 0 0 
373 125 1 13.8 6.9 3.45 0 0 0 
374 125 2 14.6165 7.47736 3.45 0 0 0 
376 126 1 17.25 6.9 3.45 0 0 0 
377 126 2 18.0665 7.47736 3.45 0 0 0 
378 126 2 16.4335 7.47736 3.45 0 0 0 
381 127 2 19.8835 7.47736 3.45 0 0 0 
403 135 1 13.8 10.35 3.45 0 0 0 
404 135 2 14.6165 10.9274 3.45 0 0 0 
406 136 1 17.25 10.35 3.45 0 0 0 
407 136 2 18.0665 10.9274 3.45 0 0 0 
408 136 2 16.4335 10.9274 3.45 0 0 0 
411 137 2 19.8835 10.9274 3.45 0 0 0 
79 27 1 20.7 6.9 0 0 0 0 
80 27 2 21.5165 7.47736 0 0 0 0 
82 28 1 24.15 6.9 0 0 0 0 
83 28 2 24.9665 7.47736 0 0 0 0 
84 28 2 23.3335 7.47736 0 0 0 0 
87 29 2 26.7835 7.47736 0 0 0 0 
109 37 1 20.7 10.35 0 0 0 0 
110 37 2 21.5165 10.9274 0 0 0 0 
112 38 1 24.15 10.35 0 0 0 0 
113 38 2 24.9665 10.9274 0 0 0 0 
114 38 2 23.3335 10.9274 0 0 0 0 
117 39 2 26.7835 10.9274 0 0 0 0 
379 127 1 20.7 6.9 3.45 0 0 0 
380 127 2 21.5165 7.47736 3.45 0 0 0 
382 128 1 24.15 6.9 3.45 0 0 0 
383 128 2 24.9665 7.47736 3.45 0 0 0 
384 128 2 23.3335 7.47736 3.45 0 0 0 
387 129 2 26.7835 7.47736 3.45 0 0 0 
409 137 1 20.7 10.35 3.45 0 0 0 
410 137 2 21.5165 10.9274 3.45 0 0 0 
412 138 1 24.15 10.35 3.45 0 0 0 
413 138 2 24.9665 10.9274 3.45 0 0 0 
414 138 2 23.3335 10.9274 3.45 0 0 0 
417 139 2 26.7835 10.9274 3.45 0 0 0 
63 21 2 33.6835 7.47736 0 -1 0 0 
85 29 1 27.6 6.9 0 0 0 0 
86 29 2 28.4165 7.47736 0 0 0 0 
88 30 1 31.05 6.9 0 0 0 0 
89 30 2 31.8665 7.47736 0 0 0 0 
90 30 2 30.2335 7.47736 0 0 0 0 
93 31 2 33.6835 10.9274 0 -1 0 0 
115 39 1 27.6 10.35 0 0 0 0 
116 39 2 28.4165 10.9274 0 0 0 0 
118 40 1 31.05 10.35 0 0 0 0 
119 40 2 31.8665 10.9274 0 0 0 0 
120 40 2 30.2335 10.9274 0 0 0 0 
363 121 2 33.6835 7.47736 3.45 -1 0 0 
385 129 1 27.6 6.9 3.45 0 0 0 
386 129 2 28.4165 7.47736 3.45 0 0 0 
388 130 1 31.05 6.9 3.45 0 0 0 
389 130 2 31.8665 7.47736 3.45 0 0 0 
390 130 2 30.2335 7.47736 3.45 0 0 0 
393 131 2 33.6835 10.9274 3.45 -1 0 0 
415 139 1 27.6 10.35 3.45 0 0 0 
416 139 2 28.4165 10.9274 3.45 0 0 0 
418 140 1 31.05 10.35 3.45 0 0 0 
419 140 2 31.8665 10.9274 3.45 0 0 0 
420 140 2 30.2335 10.9274 3.45 0 0 0 
121 41 1 0 13.8 0 0 0 0 
122 41 2 0.81649 14.3774 0 0 0 0 
124 42 1 3.45 13.8 0 0 0 0 
125 42 2 4.26649 14.3774 0 0 0 0 
126 42 2 2.63351 14.3774 0 0 0 0 
129 43 2 6.08351 14.3774 0 0 0 0 
151 51 1 0 17.25 0 0 0 0 
152 51 2 0.81649 17.8274 0 0 0 0 
154 52 1 3.45 17.25 0 0 0 0 
155 52 2 4.26649 17.8274 0 0 0 0 
156 52 2 2.63351 17.8274 0 0 0 0 
159 53 2 6.08351 17.8274 0 0 0 0 
421 141 1 0 13.8 3.45 0 0 0 
422 141 2 0.81649 14.3774 3.45 0 0 0 
424 142 1 3.45 13.8 3.45 0 0 0 
425 142 2 4.26649 14.3774 3.45 0 0 0 
426 142 2 2.63351 14.3774 3.45 0 0 0 
429 143 2 6.08351 14.3774 3.45 0 0 0 
451 151 1 0 17.25 3.45 0 0 0 
452 151 2 0.81649 17.8274 3.45 0 0 0 
454 152 1 3.45 17.25 3.45 0 0 0 
455 152 2 4.26649 17.8274 3.45 0 0 0 
456 152 2 2.63351 17.8274 3.45 0 0 0 
459 153 2 6.08351 17.8274 3.45 0 0 0 
127 43 1 6.9 13.8 0 0 0 0 
128 43 2 7.71649 14.3774 0 0 0 0 
130 44 1 10.35 13.8 0 0 0 0 
131 44 2 11.1665 14.3774 0 0 0 0 
132 44 2 9.53351 14.3774 0 0 0 0 
135 45 2 12.9835 14.3774 0 0 0 0 
157 53 1 6.9 17.25 0 0 0 0 
158 53 2 7.71649 17.8274 0 0 0 0 
160 54 1 10.35 17.25 0 0 0 0 
161 54 2 11.1665 17.8274 0 0 0 0 
162 54 2 9.53351 17.8274 0 0 0 0 
165 55 2 12.9835 17.8274 0 0 0 0 
427 143 1 6.9 13.8 3.45 0 0 0 
428 143 2 7.71649 14.3774 3.45 0 0 0 
430 144 1 10.35 13.8 3.45 0 0 0 
431 144 2 11.1665 14.3774 3.45 0 0 0 
432 144 2 9.53351 14.3774 3.45 0 0 0 
435 145 2 12.9835 14.3774 3.45 0 0 0 
457 153 1 6.9 17.25 3.45 0 0 0 
458 153 2 7.71649 17.8274 3.45 0 0 0 
460 154 1 10.35 17.25 3.45 0 0 0 
461 154 2 11.1665 17.8274 3.45 0 0 0 
462 154 2 9.53351 17.8274 3.45 0 0 0 
465 155 2 12.9835 17.8274 3.45 0 0 0 
133 45 1 13.8 13.8 0 0 0 0 
134 45 2 14.6165 14.3774 0 0 0 0 
136 46 1 17.25 13.8 0 0 0 0 
137 46 2 18.0665 14.3774 0 0 0 0 
138 46 2 16.4335 14.3774 0 0 0 0 
141 47 2 19.8835 14.3774 0 0 0 0 
163 55 1 13.8 17.25 0 0 0 0 
164 55 2 14.6165 17.8274 0 0 0 0 
166 56 1 17.25 17.25 0 0 0 0 
167 56 2 18.0665 17.8274 0 0 0 0 
168 56 2 16.4335 17.8274 0 0 0 0 
171 57 2 19.8835 17.8274 0 0 0 0 
433 145 1 13.8 13.8 3.45 0 0 0 
434 145 2 14.6165 14.3774 3.45 0 0 0 
436 146 1 17.25 13.8 3.45 0 0 0 
437 146 2 18.0665 14.3774 3.45 0 0 0 
438 146 2 16.4335 14.3774 3.45 0 0 0 
441 147 2 19.8835 14.3774 3.45 0 0 0 
463 155 1 13.8 17.25 3.45 0 0 0 
464 155 2 14.6165 17.8274 3.45 0 0 0 
466 156 1 17.25 17.25 3.45 0 0 0 
467 156 2 18.0665 17.8274 3.45 0 0 0 
468 156 2 16.4335 17.8274 3.45 0 0 0 
471 157 2 19.8835 17.8274 3.45 0 0 0 
139 47 1 20.7 13.8 0 0 0 0 
140 47 2 21.5165 14.3774 0 0 0 0 
142 48 1 24.15 13.8 0 0 0 0 
143 48 2 24.9665 14.3774 0 0 0 0 
144 48 2 23.3335 14.3774 0 0 0 0 
147 49 2 26.7835 14.3774 0 0 0 0 
169 57 1 20.7 17.25 0 0 0 0 
170 57 2 21.5165 17.8274 0 0 0 0 
172 58 1 24.15 17.25 0 0 0 0 
173 58 2 24.9665 17.8274 0 0 0 0 
174 58 2 23.3335 17.8274 0 0 0 0 
177 59 2 26.7835 17.8274 0 0 0 0 
439 147 1 20.7 13.8 3.45 0 0 0 
440 147 2 21.5165 14.3774 3.45 0 0 0 
442 148 1 24.15 13.8 3.45 0 0 0 
443 148 2 24.9665 14.3774 3.45 0 0 0 
444 148 2 23.3335 14.3774 3.45 0 0 0 
447 149 2 26.7835 14.3774 3.45 0 0 0 
469 157 1 20.7 17.25 3.45 0 0 0 
470 157 2 21.5165 17.8274 3.45 0 0 0 
472 158 1 24.15 17.25 3.45 0 0 0 
473 158 2 24.9665 17.8274 3.45 0 0 0 
474 158 2 23.3335 17.8274 3.45 0 0 0 
477 159 2 26.7835 17.8274 3.45 0 0 0 
123 41 2 33.6835 14.3774 0 -1 0 0 
145 49 1 27.6 13.8 0 0 0 0 
146 49 2 28.4165 14.3774 0 0 0 0 
148 50 1 31.05 13.8 0 0 0 0 
149 50 2 31.8665 14.3774 0 0 0 0 
150 50 2 30.2335 14.3774 0 0 0 0 
153 51 2 33.6835 17.8274 0 -1 0 0 
175 59 1 27.6 17.25 0 0 0 0 
176 59 2 28.4165 17.8274 0 0 0 0 
178 60 1 31.05 17.25 0 0 0 0 
179 60 2 31.8665 17.8274 0 0 0 0 
180 60 2 30.2335 17.8274 0 0 0 0 
423 141 2 33.6835 14.3774 3.45 -1 0 0 
445 149 1 27.6 13.8 3.45 0 0 0 
446 149 2 28.4165 14.3774 3.45 0 0 0 
448 150 1 31.05 13.8 3.45 0 0 0 
449 150 2 31.8665 14.3774 3.45 0 0 0 
450 150 2 30.2335 14.3774 3.45 0 0 0 
453 151 2 33.6835 17.8274 3.45 -1 0 0 
475 159 1 27.6 17.25 3.45 0 0 0 
476 159 2 28.4165 17.8274 3.45 0 0 0 
478 160 1 31.05 17.25 3.45 0 0 0 
479 160 2 31.8665 17.8274 3.45 0 0 0 
480 160 2 30.2335 17.8274 3.45 0 0 0 
181 61 1 0 20.7 0 0 0 0 
182 61 2 0.81649 21.2774 0 0 0 0 
184 62 1 3.45 20.7 0 0 0 0 
185 62 2 4.26649 21.2774 0 0 0 0 
186 62 2 2.63351 21.2774 0 0 0 0 
189 63 2 6.08351 21.2774 0 0 0 0 
211 71 1 0 24.15 0 0 0 0 
212 71 2 0.81649 24.7274 0 0 0 0 
214 72 1 3.45 24.15 0 0 0 0 
215 72 2 4.26649 24.7274 0 0 0 0 
216 72 2 2.63351 24.7274 0 0 0 0 
219 73 2 6.08351 24.7274 0 0 0 0 
481 161 1 0 20.7 3.45 0 0 0 
482 161 2 0.81649 21.2774 3.45 0 0 0 
484 162 1 3.45 20.7 3.45 0 0 0 
485 162 2 4.26649 21.2774 3.45 0 0 0 
486 162 2 2.63351 21.2774 3.45 0 0 0 
489 163 2 6.08351 21.2774 3.45 0 0 0 
511 171 1 0 24.15 3.45 0 0 0 
512 171 2 0.81649 24.7274 3.45 0 0 0 
514 172 1 3.45 24.15 3.45 0 0 0 
515 172 2 4.26649 24.7274 3.45 0 0 0 
516 172 2 2.63351 24.7274 3.45 0 0 0 
519 173 2 6.08351 24.7274 3.45 0 0 0 
187 63 1 6.9 20.7 0 0 0 0 
188 63 2 7.71649 21.2774 0 0 0 0 
190 64 1 10.35 20.7 0 0 0 0 
191 64 2 11.1665 21.2774 0 0 0 0 
192 64 2 9.53351 21.2774 0 0 0 0 
195 65 2 12.9835 21.2774 0 0 0 0 
217 73 1 6.9 24.15 0 0 0 0 
218 73 2 7.71649 24.7274 0 0 0 0 
220 74 1 10.35 24.15 0 0 0 0 
221 74 2 11.1665 24.7274 0 0 0 0 
222 74 2 9.53351 24.7274 0 0 0 0 
225 75 2 12.9835 24.7274 0 0 0 0 
487 163 1 6.9 20.7 3.45 0 0 0 
488 163 2 7.71649 21.2774 3.45 0 0 0 
490 164 1 10.35 20.7 3.45 0 0 0 
491 164 2 11.1665 21.2774 3.45 0 0 0 
492 164 2 9.53351 21.2774 3.45 0 0 0 
495 165 2 12.9835 21.2774 3.45 0 0 0 
517 173 1 6.9 24.15 3.45 0 0 0 
518 173 2 7.71649 24.7274 3.45 0 0 0 
520 174 1 10.35 24.15 3.45 0 0 0 
521 174 2 11.1665 24.7274 3.45 0 0 0 
522 174 2 9.53351 24.7274 3.45 0 0 0 
525 175 2 12.9835 24.7274 3.45 0 0 0 
193 65 1 13.8 20.7 0 0 0 0 
194 65 2 14.6165 21.2774 0 0 0 0 
196 66 1 17.25 20.7 0 0 0 0 
197 66 2 18.0665 21.2774 0 0 0 0 
198 66 2 16.4335 21.2774 0 0 0 0 
201 67 2 19.8835 21.2774 0 0 0 0 
223 75 1 13.8 24.15 0 0 0 0 
224 75 2 14.6165 24.7274 0 0 0 0 
226 76 1 17.25 24.15 0 0 0 0 
227 76 2 18.0665 24.7274 0 0 0 0 
228 76 2 16.4335 24.7274 0 0 0 0 
231 77 2 19.8835 24.7274 0 0 0 0 
493 165 1 13.8 20.7 3.45 0 0 0 
494 165 2 14.6165 21.2774 3.45 0 0 0 
496 166 1 17.25 20.7 3.45 0 0 0 
497 166 2 18.0665 21.2774 3.45 0 0 0 
498 166 2 16.4335 21.2774 3.45 0 0 0 
501 167 2 19.8835 21.2774 3.45 0 0 0 
523 175 1 13.8 24.15 3.45 0 0 0 
524 175 2 14.6165 24.7274 3.45 0 0 0 
526 176 1 17.25 24.15 3.45 0 0 0 
527 176 2 18.0665 24.7274 3.45 0 0 0 
528 176 2 16.4335 24.7274 3.45 0 0 0 
531 177 2 19.8835 24.7274 3.45 0 0 0 
199 67 1 20.7 20.7 0 0 0 0 
200 67 2 21.5165 21.2774 0 0 0 0 
202 68 1 24.15 20.7 0 0 0 0 
203 68 2 24.9665 21.2774 0 0 0 0 
204 68 2 23.3335 21.2774 0 0 0 0 
207 69 2 26.7835 21.2774 0 0 0 0 
229 77 1 20.7 24.15 0 0 0 0 
230 77 2 21.5165 24.7274 0 0 0 0 
232 78 1 24.15 24.15 0 0 0 0 
233 78 2 24.9665 24.7274 0 0 0 0 
234 78 2 23.3335 24.7274 0 0 0 0 
237 79 2 26.7835 24.7274 0 0 0 0 
499 167 1 20.7 20.7 3.45 0 0 0 
500 167 2 21.5165 21.2774 3.45 0 0 0 
502 168 1 24.15 20.7 3.45 0 0 0 
503 168 2 24.9665 21.2774 3.45 0 0 0 
504 168 2 23.3335 21.2774 3.45 0 0 0 
507 169 2 26.7835 21.2774 3.45 0 0 0 
529 177 1 20.7 24.15 3.45 0 0 0 
530 177 2 21.5165 24.7274 3.45 0 0 0 
532 178 1 24.15 24.15 3.45 0 0 0 
533 178 2 24.9665 24.7274 3.45 0 0 0 
534 178 2 23.3335 24.7274 3.45 0 0 0 
537 179 2 26.7835 24.7274 3.45 0 0 0 
183 61 2 33.6835 21.2774 0 -1 0 0 
205 69 1 27.6 20.7 0 0 0 0 
206 69 2 28.4165 21.2774 0 0 0 0 
208 70 1 31.05 20.7 0 0 0 0 
209 70 2 31.8665 21.2774 0 0 0 0 
210 70 2 30.2335 21.2774 0 0 0 0 
213 71 2 33.6835 24.7274 0 -1 0 0 
235 79 1 27.6 24.15 0 0 0 0 
236 79 2 28.4165 24.7274 0 0 0 0 
238 80 1 31.05 24.15 0 0 0 0 
239 80 2 31.8665 24.7274 0 0 0 0 
240 80 2 30.2335 24.7274 0 0 0 0 
483 161 2 33.6835 21.2774 3.45 -1 0 0 
505 169 1 27.6 20.7 3.45 0 0 0 
506 169 2 28.4165 21.2774 3.45 0 0 0 
508 170 1 31.05 20.7 3.45 0 0 0 
509 170 2 31.8665 21.2774 3.45 0 0 0 
510 170 2 30.2335 21.2774 3.45 0 0 0 
513 171 2 33.6835 24.7274 3.45 -1 0 0 
535 179 1 27.6 24.15 3.45 0 0 0 
536 179 2 28.4165 24.7274 3.45 0 0 0 
538 180 1 31.05 24.15 3.45 0 0 0 
539 180 2 31.8665 24.7274 3.45 0 0 0 
540 180 2 30.2335 24.7274 3.45 0 0 0 
241 81 1 0 27.6 0 0 0 0 
242 81 2 0.81649 28.1774 0 0 0 0 
244 82 1 3.45 27.6 0 0 0 0 
245 82 2 4.26649 28.1774 0 0 0 0 
246 82 2 2.63351 28.1774 0 0 0 0 
249 83 2 6.08351 28.1774 0 0 0 0 
271 91 1 0 31.05 0 0 0 0 
272 91 2 0.81649 31.6274 0 0 0 0 
274 92 1 3.45 31.05 0 0 0 0 
275 92 2 4.26649 31.6274 0 0 0 0 
276 92 2 2.63351 31.6274 0 0 0 0 
279 93 2 6.08351 31.6274 0 0 0 0 
541 181 1 0 27.6 3.45 0 0 0 
542 181 2 0.81649 28.1774 3.45 0 0 0 
544 182 1 3.45 27.6 3.45 0 0 0 
545 182 2 4.26649 28.1774 3.45 0 0 0 
546 182 2 2.63351 28.1774 3.45 0 0 0 
549 183 2 6.08351 28.1774 3.45 0 0 0 
571 191 1 0 31.05 3.45 0 0 0 
572 191 2 0.81649 31.6274 3.45 0 0 0 
574 192 1 3.45 31.05 3.45 0 0 0 
575 192 2 4.26649 31.6274 3.45 0 0 0 
576 192 2 2.63351 31.6274 3.45 0 0 0 
579 193 2 6.08351 31.6274 3.45 0 0 0 
247 83 1 6.9 27.6 0 0 0 0 
248 83 2 7.71649 28.1774 0 0 0 0 
250 84 1 10.35 27.6 0 0 0 0 
251 84 2 11.1665 28.1774 0 0 0 0 
252 84 2 9.53351 28.1774 0 0 0 0 
255 85 2 12.9835 28.1774 0 0 0 0 
277 93 1 6.9 31.05 0 0 0 0 
278 93 2 7.71649 31.6274 0 0 0 0 
280 94 1 10.35 31.05 0 0 0 0 
281 94 2 11.1665 31.6274 0 0 0 0 
282 94 2 9.53351 31.6274 0 0 0 0 
285 95 2 12.9835 31.6274 0 0 0 0 
547 183 1 6.9 27.6 3.45 0 0 0 
548 183 2 7.71649 28.1774 3.45 0 0 0 
550 184 1 10.35 27.6 3.45 0 0 0 
551 184 2 11.1665 28.1774 3.45 0 0 0 
552 184 2 9.53351 28.1774 3.45 0 0 0 
555 185 2 12.9835 28.1774 3.45 0 0 0 
577 193 1 6.9 31.05 3.45 0 0 0 
578 193 2 7.71649 31.6274 3.45 0 0 0 
580 194 1 10.35 31.05 3.45 0 0 0 
581 194 2 11.1665 31.6274 3.45 0 0 0 
582 194 2 9.53351 31.6274 3.45 0 0 0 
585 195 2 12.9835 31.6274 3.45 0 0 0 
253 85 1 13.8 27.6 0 0 0 0 
254 85 2 14.6165 28.1774 0 0 0 0 
256 86 1 17.25 27.6 0 0 0 0 
257 86 2 18.0665 28.1774 0 0 0 0 
258 86 2 16.4335 28.1774 0 0 0 0 
261 87 2 19.8835 28.1774 0 0 0 0 
283 95 1 13.8 31.05 0 0 0 0 
284 95 2 14.6165 31.6274 0 0 0 0 
286 96 1 17.25 31.05 0 0 0 0 
287 96 2 18.0665 31.6274 0 0 0 0 
288 96 2 16.4335 31.6274 0 0 0 0 
291 97 2 19.8835 31.6274 0 0 0 0 
553 185 1 13.8 27.6 3.45 0 0 0 
554 185 2 14.6165 28.1774 3.45 0 0 0 
556 186 1 17.25 27.6 3.45 0 0 0 
557 186 2 18.0665 28.1774 3.45 0 0 0 
558 186 2 16.4335 28.1774 3.45 0 0 0 
561 187 2 19.8835 28.1774 3.45 0 0 0 
583 195 1 13.8 31.05 3.45 0 0 0 
584 195 2 14.6165 31.6274 3.45 0 0 0 
586 196 1 17.25 31.05 3.45 0 0 0 
587 196 2 18.0665 31.6274 3.45 0 0 0 
588 196 2 16.4335 31.6274 3.45 0 0 0 
591 197 2 19.8835 31.6274 3.45 0 0 0 
259 87 1 20.7 27.6 0 0 0 0 
260 87 2 21.5165 28.1774 0 0 0 0 
262 88 1 24.15 27.6 0 0 0 0 
263 88 2 24.9665 28.1774 0 0 0 0 
264 88 2 23.3335 28.1774 0 0 0 0 
267 89 2 26.7835 28.1774 0 0 0 0 
289 97 1 20.7 31.05 0 0 0 0 
290 97 2 21.5165 31.6274 0 0 0 0 
292 98 1 24.15 31.05 0 0 0 0 
293 98 2 24.9665 31.6274 0 0 0 0 
294 98 2 23.3335 31.6274 0 0 0 0 
297 99 2 26.7835 31.6274 0 0 0 0 
559 187 1 20.7 27.6 3.45 0 0 0 
560 187 2 21.5165 28.1774 3.45 0 0 0 
562 188 1 24.15 27.6 3.45 0 0 0 
563 188 2 24.9665 28.1774 3.45 0 0 0 
564 188 2 23.3335 28.1774 3.45 0 0 0 
567 189 2 26.7835 28.1774 3.45 0 0 0 
589 197 1 20.7 31.05 3.45 0 0 0 
590 197 2 21.5165 31.6274 3.45 0 0 0 
592 198 1 24.15 31.05 3.45 0 0 0 
593 198 2 24.9665 31.6274 3.45 0 0 0 
594 198 2 23.3335 31.6274 3.45 0 0 0 
597 199 2 26.7835 31.6274 3.45 0 0 0 
243 81 2 33.6835 28.1774 0 -1 0 0 
265 89 1 27.6 27.6 0 0 0 0 
266 89 2 28.4165 28.1774 0 0 0 0 
268 90 1 31.05 27.6 0 0 0 0 
269 90 2 31.8665 28.1774 0 0 0 0 
270 90 2 30.2335 28.1774 0 0 0 0 
273 91 2 33.6835 31.6274 0 -1 0 0 
295 99 1 27.6 31.05 0 0 0 0 
296 99 2 28.4165 31.6274 0 0 0 0 
298 100 1 31.05 31.05 0 0 0 0 
299 100 2 31.8665 31.6274 0 0 0 0 
300 100 2 30.2335 31.6274 0 0 0 0 
543 181 2 33.6835 28.1774 3.45 -1 0 0 
565 189 1 27.6 27.6 3.45 0 0 0 
566 189 2 28.4165 28.1774 3.45 0 0 0 
568 190 1 31.05 27.6 3.45 0 0 0 
569 190 2 31.8665 28.1774 3.45 0 0 0 
570 190 2 30.2335 28.1774 3.45 0 0 0 
573 191 2 33.6835 31.6274 3.45 -1 0 0 
595 199 1 27.6 31.05 3.45 0 0 0 
596 199 2 28.4165 31.6274 3.45 0 0 0 
598 200 1 31.05 31.05 3.45 0 0 0 
599 200 2 31.8665 31.6274 3.45 0 0 0 
600 200 2 30.2335 31.6274 3.45 0 0 0 
601 201 1 0 0 6.9 0 0 0 
602 201 2 0.81649 0.577359 6.9 0 0 0 
604 202 1 3.45 0 6.9 0 0 0 
605 202 2 4.26649 0.577359 6.9 0 0 0 
606 202 2 2.63351 0.577359 6.9 0 0 0 
609 203 2 6.08351 0.577359 6.9 0 0 0 
631 211 1 0 3.45 6.9 0 0 0 
632 211 2 0.81649 4.02736 6.9 0 0 0 
634 212 1 3.45 3.45 6.9 0 0 0 
635 212 2 4.26649 4.02736 6.9 0 0 0 
636 212 2 2.63351 4.02736 6.9 0 0 0 
639 213 2 6.08351 4.02736 6.9 0 0 0 
901 301 1 0 0 10.35 0 0 0 
902 301 2 0.81649 0.577359 10.35 0 0 0 
904 302 1 3.45 0 10.35 0 0 0 
905 302 2 4.26649 0.577359 10.35 0 0 0 
906 302 2 2.63351 0.577359 10.35 0 0 0 
909 303 2 6.08351 0.577359 10.35 0 0 0 
931 311 1 0 3.45 10.35 0 0 0 
932 311 2 0.81649 4.02736 10.35 0 0 0 
934 312 1 3.45 3.45 10.35 0 0 0 
935 312 2 4.26649 4.02736 10.35 0 0 0 
936 312 2 2.63351 4.02736 10.35 0 0 0 
939 313 2 6.08351 4.02736 10.35 0 0 0 
607 203 1 6.9 0 6.9 0 0 0 
608 203 2 7.71649 0.577359 6.9 0 0 0 
610 204 1 10.35 0 6.9 0 0 0 
611 204 2 11.1665 0.577359 6.9 0 0 0 
612 204 2 9.53351 0.577359 6.9 0 0 0 
615 205 2 12.9835 0.577359 6.9 0 0 0 
637 213 1 6.9 3.45 6.9 0 0 0 
638 213 2 7.71649 4.02736 6.9 0 0 0 
640 214 1 10.35 3.45 6.9 0 0 0 
641 214 2 11.1665 4.02736 6.9 0 0 0 
642 214 2 9.53351 4.02736 6.9 0 0 0 
645 215 2 12.9835 4.02736 6.9 0 0 0 
907 303 1 6.9 0 10.35 0 0 0 
908 303 2 7.71649 0.577359 10.35 0 0 0 
910 304 1 10.35 0 10.35 0 0 0 
911 304 2 11.1665 0.577359 10.35 0 0 0 
912 304 2 9.53351 0.577359 10.35 0 0 0 
915 305 2 12.9835 0.577359 10.35 0 0 0 
937 313 1 6.9 3.45 10.35 0 0 0 
938 313 2 7.71649 4.02736 10.35 0 0 0 
940 314 1 10.35 3.45 10.35 0 0 0 
941 314 2 11.1665 4.02736 10.35 0 0 0 
942 314 2 9.53351 4.02736 10.35 0 0 0 
945 315 2 12.9835 4.02736 10.35 0 0 0 
613 205 1 13.8 0 6.9 0 0 0 
614 205 2 14.6165 0.577359 6.9 0 0 0 
616 206 1 17.25 0 6.9 0 0 0 
617 206 2 18.0665 0.577359 6.9 0 0 0 
618 206 2 16.4335 0.577359 6.9 0 0 0 
621 207 2 19.8835 0.577359 6.9 0 0 0 
643 215 1 13.8 3.45 6.9 0 0 0 
644 215 2 14.6165 4.02736 6.9 0 0 0 
646 216 1 17.25 3.45 6.9 0 0 0 
647 216 2 18.0665 4.02736 6.9 0 0 0 
648 216 2 16.4335 4.02736 6.9 0 0 0 
651 217 2 19.8835 4.02736 6.9 0 0 0 
913 305 1 13.8 0 10.35 0 0 0 
914 305 2 14.6165 0.577359 10.35 0 0 0 
916 306 1 17.25 0 10.35 0 0 0 
917 306 2 18.0665 0.577359 10.35 0 0 0 
918 306 2 16.4335 0.577359 10.35 0 0 0 
921 307 2 19.8835 0.577359 10.35 0 0 0 
943 315 1 13.8 3.45 10.35 0 0 0 
944 315 2 14.6165 4.02736 10.35 0 0 0 
946 316 1 17.25 3.45 10.35 0 0 0 
947 316 2 18.0665 4.02736 10.35 0 0 0 
948 316 2 16.4335 4.02736 10.35 0 0 0 
951 317 2 19.8835 4.02736 10.35 0 0 0 
619 207 1 20.7 0 6.9 0 0 0 
620 207 2 21.5165 0.577359 6.9 0 0 0 
622 208 1 24.15 0 6.9 0 0 0 
623 208 2 24.9665 0.577359 6.9 0 0 0 
624 208 2 23.3335 0.577359 6.9 0 0 0 
627 209 2 26.7835 0.577359 6.9 0 0 0 
649 217 1 20.7 3.45 6.9 0 0 0 
650 217 2 21.5165 4.02736 6.9 0 0 0 
652 218 1 24.15 3.45 6.9 0 0 0 
653 218 2 24.9665 4.02736 6.9 0 0 0 
654 218 2 23.3335 4.02736 6.9 0 0 0 
657 219 2 26.7835 4.02736 6.9 0 0 0 
919 307 1 20.7 0 10.35 0 0 0 
920 307 2 21.5165 0.577359 10.35 0 0 0 
922 308 1 24.15 0 10.35 0 0 0 
923 308 2 24.9665 0.577359 10.35 0 0 0 
924 308 2 23.3335 0.577359 10.35 0 0 0 
927 309 2 26.7835 0.577359 10.35 0 0 0 
949 317 1 20.7 3.45 10.35 0 0 0 
950 317 2 21.5165 4.02736 10.35 0 0 0 
952 318 1 24.15 3.45 10.35 0 0 0 
953 318 2 24.9665 4.02736 10.35 0 0 0 
954 318 2 23.3335 4.02736 10.35 0 0 0 
957 319 2 26.7835 4.02736 10.35 0 0 0 
603 201 2 33.6835 0.577359 6.9 -1 0 0 
625 209 1 27.6 0 6.9 0 0 0 
626 209 2 28.4165 0.577359 6.9 0 0 0 
628 210 1 31.05 0 6.9 0 0 0 
629 210 2 31.8665 0.577359 6.9 0 0 0 
630 210 2 30.2335 0.577359 6.9 0 0 0 
633 211 2 33.6835 4.02736 6.9 -1 0 0 
655 219 1 27.6 3.45 6.9 0 0 0 
656 219 2 28.4165 4.02736 6.9 0 0 0 
658 220 1 31.05 3.45 6.9 0 0 0 
659 220 2 31.8665 4.02736 6.9 0 0 0 
660 220 2 30.2335 4.02736 6.9 0 0 0 
903 301 2 33.6835 0.577359 10.35 -1 0 0 
925 309 1 27.6 0 10.35 0 0 0 
926 309 2 28.4165 0.577359 10.35 0 0 0 
928 310 1 31.05 0 10.35 0 0 0 
929 310 2 31.8665 0.577359 10.35 0 0 0 
930 310 2 30.2335 0.577359 10.35 0 0 0 
933 311 2 33.6835 4.02736 10.35 -1 0 0 
955 319 1 27.6 3.45 10.35 0 0 0 
956 319 2 28.4165 4.02736 10.35 0 0 0 
958 320 1 31.05 3.45 10.35 0 0 0 
959 320 2 31.8665 4.02736 10.35 0 0 0 
960 320 2 30.2335 4.02736 10.35 0 0 0 
661 221 1 0 6.9 6.9 0 0 0 
662 221 2 0.81649 7.47736 6.9 0 0 0 
664 222 1 3.45 6.9 6.9 0 0 0 
665 222 2 4.26649 7.47736 6.9 0 0 0 
666 222 2 2.63351 7.47736 6.9 0 0 0 
669 223 2 6.08351 7.47736 6.9 0 0 0 
691 231 1 0 10.35 6.9 0 0 0 
692 231 2 0.81649 10.9274 6.9 0 0 0 
694 232 1 3.45 10.35 6.9 0 0 0 
695 232 2 4.26649 10.9274 6.9 0 0 0 
696 232 2 2.63351 10.9274 6.9 0 0 0 
699 233 2 6.08351 10.9274 6.9 0 0 0 
961 321 1 0 6.9 10.35 0 0 0 
962 321 2 0.81649 7.47736 10.35 0 0 0 
964 322 1 3.45 6.9 10.35 0 0 0 
965 322 2 4.26649 7.47736 10.35 0 0 0 
966 322 2 2.63351 7.47736 10.35 0 0 0 
969 323 2 6.08351 7.47736 10.35 0 0 0 
991 331 1 0 10.35 10.35 0 0 0 
992 331 2 0.81649 10.9274 10.35 0 0 0 
994 332 1 3.45 10.35 10.35 0 0 0 
995 332 2 4.26649 10.9274 10.35 0 0 0 
996 332 2 2.63351 10.9274 10.35 0 0 0 
999 333 2 6.08351 10.9274 10.35 0 0 0 
667 223 1 6.9 6.9 6.9 0 0 0 
668 223 2 7.71649 7.47736 6.9 0 0 0 
670 224 1 10.35 6.9 6.9 0 0 0 
671 224 2 11.1665 7.47736 6.9 0 0 0 
672 224 2 9.53351 7.47736 6.9 0 0 0 
675 225 2 12.9835 7.47736 6.9 0 0 0 
697 233 1 6.9 10.35 6.9 0 0 0 
698 233 2 7.71649 10.9274 6.9 0 0 0 
700 234 1 10.35 10.35 6.9 0 0 0 
701 234 2 11.1665 10.9274 6.9 0 0 0 
702 234 2 9.53351 10.9274 6.9 0 0 0 
705 235 2 12.9835 10.9274 6.9 0 0 0 
967 323 1 6.9 6.9 10.35 0 0 0 
968 323 2 7.71649 7.47736 10.35 0 0 0 
970 324 1 10.35 6.9 10.35 0 0 0 
971 324 2 11.1665 7.47736 10.35 0 0 0 
972 324 2 9.53351 7.47736 10.35 0 0 0 
975 325 2 12.9835 7.47736 10.35 0 0 0 
997 333 1 6.9 10.35 10.35 0 0 0 
998 333 2 7.71649 10.9274 10.35 0 0 0 
1000 334 1 10.35 10.35 10.35 0 0 0 
1001 334 2 11.1665 10.9274 10.35 0 0 0 
1002 334 2 9.53351 10.9274 10.35 0 0 0 
1005 335 2 12.9835 10.9274 10.35 0 0 0 
673 225 1 13.8 6.9 6.9 0 0 0 
674 225 2 14.6165 7.47736 6.9 0 0 0 
676 226 1 17.25 6.9 6.9 0 0 0 
677 226 2 18.0665 7.47736 6.9 0 0 0 
678 226 2 16.4335 7.47736 6.9 0 0 0 
681 227 2 19.8835 7.47736 6.9 0 0 0 
703 235 1 13.8 10.35 6.9 0 0 0 
704 235 2 14.6165 10.9274 6.9 0 0 0 
706 236 1 17.25 10.35 6.9 0 0 0 
707 236 2 18.0665 10.9274 6.9 0 0 0 
708 236 2 16.4335 10.9274 6.9 0 0 0 
711 237 2 19.8835 10.9274 6.9 0 0 0 
973 325 1 13.8 6.9 10.35 0 0 0 
974 325 2 14.6165 7.47736 10.35 0 0 0 
976 326 1 17.25 6.9 10.35 0 0 0 
977 326 2 18.0665 7.47736 10.35 0 0 0 
978 326 2 16.4335 7.47736 10.35 0 0 0 
981 327 2 19.8835 7.47736 10.35 0 0 0 
1003 335 1 13.8 10.35 10.35 0 0 0 
1004 335 2 14.6165 10.9274 10.35 0 0 0 
1006 336 1 17.25 10.35 10.35 0 0 0 
1007 336 2 18.0665 10.9274 10.35 0 0 0 
1008 336 2 16.4335 10.9274 10.35 0 0 0 
1011 337 2 19.8835 10.9274 10.35 0 0 0 
679 227 1 20.7 6.9 6.9 0 0 0 
680 227 2 21.5165 7.47736 6.9 0 0 0 
682 228 1 24.15 6.9 6.9 0 0 0 
683 228 2 24.9665 7.47736 6.9 0 0 0 
684 228 2 23.3335 7.47736 6.9 0 0 0 
687 229 2 26.7835 7.47736 6.9 0 0 0 
709 237 1 20.7 10.35 6.9 0 0 0 
710 237 2 21.5165 10.9274 6.9 0 0 0 
712 238 1 24.15 10.35 6.9 0 0 0 
713 238 2 24.9665 10.9274 6.9 0 0 0 
714 238 2 23.3335 10.9274 6.9 0 0 0 
717 239 2 26.7835 10.9274 6.9 0 0 0 
979 327 1 20.7 6.9 10.35 0 0 0 
980 327 2 21.5165 7.47736 10.35 0 0 0 
982 328 1 24.15 6.9 10.35 0 0 0 
983 328 2 24.9665 7.47736 10.35 0 0 0 
984 328 2 23.3335 7.47736 10.35 0 0 0 
987 329 2 26.7835 7.47736 10.35 0 0 0 
1009 337 1 20.7 10.35 10.35 0 0 0 
1010 337 2 21.5165 10.9274 10.35 0 0 0 
1012 338 1 24.15 10.35 10.35 0 0 0 
1013 338 2 24.9665 10.9274 10.35 0 0 0 
1014 338 2 23.3335 10.9274 10.35 0 0 0 
1017 339 2 26.7835 10.9274 10.35 0 0 0 
663 221 2 33.6835 7.47736 6.9 -1 0 0 
685 229 1 27.6 6.9 6.9 0 0 0 
686 229 2 28.4165 7.47736 6.9 0 0 0 
688 230 1 31.05 6.9 6.9 0 0 0 
689 230 2 31.8665 7.47736 6.9 0 0 0 
690 230 2 30.2335 7.47736 6.9 0 0 0 
693 231 2 33.6835 10.9274 6.9 -1 0 0 
715 239 1 27.6 10.35 6.9 0 0 0 
716 239 2 28.4165 10.9274 6.9 0 0 0 
718 240 1 31.05 10.35 6.9 0 0 0 
719 240 2 31.8665 10.9274 6.9 0 0 0 
720 240 2 30.2335 10.9274 6.9 0 0 0 
963 321 2 33.6835 7.47736 10.35 -1 0 0 
985 329 1 27.6 6.9 10.35 0 0 0 
986 329 2 28.4165 7.47736 10.35 0 0 0 
988 330 1 31.05 6.9 10.35 0 0 0 
989 330 2 31.8665 7.47736 10.35 0 0 0 
990 330 2 30.2335 7.47736 10.35 0 0 0 
993 331 2 33.6835 10.9274 10.35 -1 0 0 
1015 339 1 27.6 10.35 10.35 0 0 0 
1016 339 2 28.4165 10.9274 10.35 0 0 0 
1018 340 1 31.05 10.35 10.35 0 0 0 
1019 340 2 31.8665 10.9274 10.35 0 0 0 
1020 340 2 30.2335 10.9274 10.35 0 0 0 
721 241 1 0 13.8 6.9 0 0 0 
722 241 2 0.81649 14.3774 6.9 0 0 0 
724 242 1 3.45 13.8 6.9 0 0 0 
725 242 2 4.26649 14.3774 6.9 0 0 0 
726 242 2 2.63351 14.3774 6.9 0 0 0 
729 243 2 6.08351 14.3774 6.9 0 0 0 
751 251 1 0 17.25 6.9 0 0 0 
752 251 2 0.81649 17.8274 6.9 0 0 0 
754 252 1 3.45 17.25 6.9 0 0 0 
755 252 2 4.26649 17.8274 6.9 0 0 0 
756 252 2 2.63351 17.8274 6.9 0 0 0 
759 253 2 6.08351 17.8274 6.9 0 0 0 
1021 341 1 0 13.8 10.35 0 0 0 
1022 341 2 0.81649 14.3774 10.35 0 0 0 
1024 342 1 3.45 13.8 10.35 0 0 0 
1025 342 2 4.26649 14.3774 10.35 0 0 0 
1026 342 2 2.63351 14.3774 10.35 0 0 0 
1029 343 2 6.08351 14.3774 10.35 0 0 0 
1051 351 1 0 17.25 10.35 0 0 0 
1052 351 2 0.81649 17.8274 10.35 0 0 0 
1054 352 1 3.45 17.25 10.35 0 0 0 